 Entering Gaussian System, Link 0=g16
 Initial command:
 /apps/gaussian/g16-c01-avx/g16/l1.exe "/var/tmp/pbs.835971[1].pbs/structure_1/oxidized/Gau-2707446.inp" -scrdir="/var/tmp/pbs.835971[1].pbs/structure_1/oxidized/"
 Entering Link 1 = /apps/gaussian/g16-c01-avx/g16/l1.exe PID=   2707447.
  
 Copyright (c) 1988-2019, Gaussian, Inc.  All Rights Reserved.
  
 This is part of the Gaussian(R) 16 program.  It is based on
 the Gaussian(R) 09 system (copyright 2009, Gaussian, Inc.),
 the Gaussian(R) 03 system (copyright 2003, Gaussian, Inc.),
 the Gaussian(R) 98 system (copyright 1998, Gaussian, Inc.),
 the Gaussian(R) 94 system (copyright 1995, Gaussian, Inc.),
 the Gaussian 92(TM) system (copyright 1992, Gaussian, Inc.),
 the Gaussian 90(TM) system (copyright 1990, Gaussian, Inc.),
 the Gaussian 88(TM) system (copyright 1988, Gaussian, Inc.),
 the Gaussian 86(TM) system (copyright 1986, Carnegie Mellon
 University), and the Gaussian 82(TM) system (copyright 1983,
 Carnegie Mellon University). Gaussian is a federally registered
 trademark of Gaussian, Inc.
  
 This software contains proprietary and confidential information,
 including trade secrets, belonging to Gaussian, Inc.
  
 This software is provided under written license and may be
 used, copied, transmitted, or stored only in accord with that
 written license.
  
 The following legend is applicable only to US Government
 contracts under FAR:
  
                    RESTRICTED RIGHTS LEGEND
  
 Use, reproduction and disclosure by the US Government is
 subject to restrictions as set forth in subparagraphs (a)
 and (c) of the Commercial Computer Software - Restricted
 Rights clause in FAR 52.227-19.
  
 Gaussian, Inc.
 340 Quinnipiac St., Bldg. 40, Wallingford CT 06492
  
  
 ---------------------------------------------------------------
 Warning -- This program may not be used in any manner that
 competes with the business of Gaussian, Inc. or will provide
 assistance to any competitor of Gaussian, Inc.  The licensee
 of this program is prohibited from giving any competitor of
 Gaussian, Inc. access to this program.  By using this program,
 the user acknowledges that Gaussian, Inc. is engaged in the
 business of creating and licensing software in the field of
 computational chemistry and represents and warrants to the
 licensee that it is not a competitor of Gaussian, Inc. and that
 it will not use this program in any manner prohibited above.
 ---------------------------------------------------------------
  

 Cite this work as:
 Gaussian 16, Revision C.01,
 M. J. Frisch, G. W. Trucks, H. B. Schlegel, G. E. Scuseria, 
 M. A. Robb, J. R. Cheeseman, G. Scalmani, V. Barone, 
 G. A. Petersson, H. Nakatsuji, X. Li, M. Caricato, A. V. Marenich, 
 J. Bloino, B. G. Janesko, R. Gomperts, B. Mennucci, H. P. Hratchian, 
 J. V. Ortiz, A. F. Izmaylov, J. L. Sonnenberg, D. Williams-Young, 
 F. Ding, F. Lipparini, F. Egidi, J. Goings, B. Peng, A. Petrone, 
 T. Henderson, D. Ranasinghe, V. G. Zakrzewski, J. Gao, N. Rega, 
 G. Zheng, W. Liang, M. Hada, M. Ehara, K. Toyota, R. Fukuda, 
 J. Hasegawa, M. Ishida, T. Nakajima, Y. Honda, O. Kitao, H. Nakai, 
 T. Vreven, K. Throssell, J. A. Montgomery, Jr., J. E. Peralta, 
 F. Ogliaro, M. J. Bearpark, J. J. Heyd, E. N. Brothers, K. N. Kudin, 
 V. N. Staroverov, T. A. Keith, R. Kobayashi, J. Normand, 
 K. Raghavachari, A. P. Rendell, J. C. Burant, S. S. Iyengar, 
 J. Tomasi, M. Cossi, J. M. Millam, M. Klene, C. Adamo, R. Cammi, 
 J. W. Ochterski, R. L. Martin, K. Morokuma, O. Farkas, 
 J. B. Foresman, and D. J. Fox, Gaussian, Inc., Wallingford CT, 2019.
 
 ******************************************
 Gaussian 16:  ES64L-G16RevC.01  3-Jul-2019
                25-Mar-2025 
 ******************************************
 %Chk=entry_0_oxidised_neutral.chk
 %mem=64GB
 %nprocshared=16
 Will use up to   16 processors via shared memory.
 ----------------------------------------------------------------------
 #P M062X/6-31++G(d,p) Geom=AllCheck Guess=Read SCRF=(SMD,Solvent=Water
 )
 ----------------------------------------------------------------------
 1/29=7,38=1,172=1/1;
 2/12=2,40=1/2;
 3/5=1,6=6,7=1111,11=2,14=-4,25=1,30=1,70=32201,72=1,74=-55,116=-2/1,2,3;
 4/5=1/1;
 5/5=2,38=6,53=1/2;
 6/7=2,8=2,9=2,10=2,28=1/1;
 99/5=1,9=1/99;
 Leave Link    1 at Tue Mar 25 12:14:51 2025, MaxMem=  8589934592 cpu:               0.6 elap:               0.0
 (Enter /apps/gaussian/g16-c01-avx/g16/l101.exe)
 Structure from the checkpoint file:  "entry_0_oxidised_neutral.chk"
 ------------------------
 Generated Gaussian Input
 ------------------------
 Charge =  0 Multiplicity = 1
 Redundant internal coordinates found in file.  (old form).
 C,0,0.0140139249,0.0000096844,-0.0157874691
 C,0,0.0140149601,0.0000142219,1.404615767
 C,0,1.1944624072,-0.0000193497,2.103654027
 C,0,2.4295465291,-0.0000580432,1.4049691761
 N,0,3.5958406137,-0.0000913548,2.1107257091
 C,0,4.6993438382,-0.0001265154,1.4068626213
 C,0,4.6993427971,-0.0001310268,-0.0180411227
 N,0,3.5958385438,-0.0001001398,-0.7219025976
 C,0,2.4295454896,-0.0000623464,-0.0161443558
 C,0,1.1944603623,-0.0000280995,-0.7148274241
 H,0,-0.9319992825,0.0000363097,-0.5476206453
 H,0,-0.9319974519,0.0000445418,1.936450361
 H,0,1.2259172283,-0.000017291,3.1883339327
 H,0,5.6422046818,-0.0001499032,1.9489594842
 H,0,5.6422028515,-0.0001579684,-0.5601393582
 H,0,1.2259136653,-0.0000329649,-1.7995073746
 Recover connectivity data from disk.
 ITRead=  0  0  0  0  0  0  0  0  0  0  0  0  0  0  0  0
 MicOpt= -1 -1 -1 -1 -1 -1 -1 -1 -1 -1 -1 -1 -1 -1 -1 -1
                           ----------------------------
                           !    Current Parameters    !
                           ! (Angstroms and Degrees)  !
 --------------------------                            --------------------------
 ! Name  Definition              Value                                          !
 --------------------------------------------------------------------------------
 ! R1    R(1,2)                  1.4204                                         !
 ! R2    R(1,10)                 1.3719                                         !
 ! R3    R(1,11)                 1.0853                                         !
 ! R4    R(2,3)                  1.3719                                         !
 ! R5    R(2,12)                 1.0853                                         !
 ! R6    R(3,4)                  1.419                                          !
 ! R7    R(3,13)                 1.0851                                         !
 ! R8    R(4,5)                  1.3632                                         !
 ! R9    R(4,9)                  1.4211                                         !
 ! R10   R(5,6)                  1.3089                                         !
 ! R11   R(6,7)                  1.4249                                         !
 ! R12   R(6,14)                 1.0876                                         !
 ! R13   R(7,8)                  1.3089                                         !
 ! R14   R(7,15)                 1.0876                                         !
 ! R15   R(8,9)                  1.3632                                         !
 ! R16   R(9,10)                 1.419                                          !
 ! R17   R(10,16)                1.0851                                         !
 ! A1    A(2,1,10)             120.6332                                         !
 ! A2    A(2,1,11)             119.344                                          !
 ! A3    A(10,1,11)            120.0227                                         !
 ! A4    A(1,2,3)              120.6332                                         !
 ! A5    A(1,2,12)             119.344                                          !
 ! A6    A(3,2,12)             120.0227                                         !
 ! A7    A(2,3,4)              119.87                                           !
 ! A8    A(2,3,13)             122.2943                                         !
 ! A9    A(4,3,13)             117.8357                                         !
 ! A10   A(3,4,5)              119.324                                          !
 ! A11   A(3,4,9)              119.4967                                         !
 ! A12   A(5,4,9)              121.1793                                         !
 ! A13   A(4,5,6)              116.2892                                         !
 ! A14   A(5,6,7)              122.5315                                         !
 ! A15   A(5,6,14)             117.5718                                         !
 ! A16   A(7,6,14)             119.8967                                         !
 ! A17   A(6,7,8)              122.5315                                         !
 ! A18   A(6,7,15)             119.8967                                         !
 ! A19   A(8,7,15)             117.5718                                         !
 ! A20   A(7,8,9)              116.2892                                         !
 ! A21   A(4,9,8)              121.1793                                         !
 ! A22   A(4,9,10)             119.4967                                         !
 ! A23   A(8,9,10)             119.324                                          !
 ! A24   A(1,10,9)             119.87                                           !
 ! A25   A(1,10,16)            122.2943                                         !
 ! A26   A(9,10,16)            117.8357                                         !
 ! D1    D(10,1,2,3)             0.0                                            !
 ! D2    D(10,1,2,12)          180.0                                            !
 ! D3    D(11,1,2,3)           180.0                                            !
 ! D4    D(11,1,2,12)            0.0                                            !
 ! D5    D(2,1,10,9)             0.0                                            !
 ! D6    D(2,1,10,16)          180.0                                            !
 ! D7    D(11,1,10,9)          180.0                                            !
 ! D8    D(11,1,10,16)           0.0                                            !
 ! D9    D(1,2,3,4)              0.0                                            !
 ! D10   D(1,2,3,13)          -180.0                                            !
 ! D11   D(12,2,3,4)          -180.0                                            !
 ! D12   D(12,2,3,13)            0.0                                            !
 ! D13   D(2,3,4,5)           -180.0                                            !
 ! D14   D(2,3,4,9)              0.0                                            !
 ! D15   D(13,3,4,5)             0.0                                            !
 ! D16   D(13,3,4,9)           180.0                                            !
 ! D17   D(3,4,5,6)            180.0                                            !
 ! D18   D(9,4,5,6)              0.0                                            !
 ! D19   D(3,4,9,8)           -179.9999                                         !
 ! D20   D(3,4,9,10)             0.0                                            !
 ! D21   D(5,4,9,8)              0.0                                            !
 ! D22   D(5,4,9,10)           179.9999                                         !
 ! D23   D(4,5,6,7)              0.0                                            !
 ! D24   D(4,5,6,14)           179.9998                                         !
 ! D25   D(5,6,7,8)              0.0                                            !
 ! D26   D(5,6,7,15)           179.9998                                         !
 ! D27   D(14,6,7,8)          -179.9998                                         !
 ! D28   D(14,6,7,15)            0.0                                            !
 ! D29   D(6,7,8,9)              0.0                                            !
 ! D30   D(15,7,8,9)          -179.9998                                         !
 ! D31   D(7,8,9,4)              0.0                                            !
 ! D32   D(7,8,9,10)          -180.0                                            !
 ! D33   D(4,9,10,1)             0.0                                            !
 ! D34   D(4,9,10,16)         -180.0                                            !
 ! D35   D(8,9,10,1)           180.0                                            !
 ! D36   D(8,9,10,16)            0.0                                            !
 --------------------------------------------------------------------------------
 NAtoms=     16 NQM=       16 NQMF=       0 NMMI=      0 NMMIF=      0
                NMic=       0 NMicF=      0.
                    Isotopes and Nuclear Properties:
 (Nuclear quadrupole moments (NQMom) in fm**2, nuclear magnetic moments (NMagM)
  in nuclear magnetons)

  Atom         1           2           3           4           5           6           7           8           9          10
 IAtWgt=          12          12          12          12          14          12          12          14          12          12
 AtmWgt=  12.0000000  12.0000000  12.0000000  12.0000000  14.0030740  12.0000000  12.0000000  14.0030740  12.0000000  12.0000000
 NucSpn=           0           0           0           0           2           0           0           2           0           0
 AtZEff=   3.6000000   3.6000000   3.6000000   3.6000000   4.5500000   3.6000000   3.6000000   4.5500000   3.6000000   3.6000000
 NQMom=    0.0000000   0.0000000   0.0000000   0.0000000   2.0440000   0.0000000   0.0000000   2.0440000   0.0000000   0.0000000
 NMagM=    0.0000000   0.0000000   0.0000000   0.0000000   0.4037610   0.0000000   0.0000000   0.4037610   0.0000000   0.0000000
 AtZNuc=   6.0000000   6.0000000   6.0000000   6.0000000   7.0000000   6.0000000   6.0000000   7.0000000   6.0000000   6.0000000

  Atom        11          12          13          14          15          16
 IAtWgt=           1           1           1           1           1           1
 AtmWgt=   1.0078250   1.0078250   1.0078250   1.0078250   1.0078250   1.0078250
 NucSpn=           1           1           1           1           1           1
 AtZEff=   1.0000000   1.0000000   1.0000000   1.0000000   1.0000000   1.0000000
 NQMom=    0.0000000   0.0000000   0.0000000   0.0000000   0.0000000   0.0000000
 NMagM=    2.7928460   2.7928460   2.7928460   2.7928460   2.7928460   2.7928460
 AtZNuc=   1.0000000   1.0000000   1.0000000   1.0000000   1.0000000   1.0000000
 Leave Link  101 at Tue Mar 25 12:14:52 2025, MaxMem=  8589934592 cpu:               4.2 elap:               0.3
 (Enter /apps/gaussian/g16-c01-avx/g16/l202.exe)
                          Input orientation:                          
 ---------------------------------------------------------------------
 Center     Atomic      Atomic             Coordinates (Angstroms)
 Number     Number       Type             X           Y           Z
 ---------------------------------------------------------------------
      1          6           0        0.014014    0.000010   -0.015787
      2          6           0        0.014015    0.000014    1.404616
      3          6           0        1.194462   -0.000019    2.103654
      4          6           0        2.429547   -0.000058    1.404969
      5          7           0        3.595841   -0.000091    2.110726
      6          6           0        4.699344   -0.000127    1.406863
      7          6           0        4.699343   -0.000131   -0.018041
      8          7           0        3.595839   -0.000100   -0.721903
      9          6           0        2.429545   -0.000062   -0.016144
     10          6           0        1.194460   -0.000028   -0.714827
     11          1           0       -0.931999    0.000036   -0.547621
     12          1           0       -0.931997    0.000045    1.936450
     13          1           0        1.225917   -0.000017    3.188334
     14          1           0        5.642205   -0.000150    1.948959
     15          1           0        5.642203   -0.000158   -0.560139
     16          1           0        1.225914   -0.000033   -1.799507
 ---------------------------------------------------------------------
                    Distance matrix (angstroms):
                    1          2          3          4          5
     1  C    0.000000
     2  C    1.420403   0.000000
     3  C    2.426003   1.371900   0.000000
     4  C    2.802382   2.415532   1.419011   0.000000
     5  N    4.165518   3.650762   2.401389   1.363207   0.000000
     6  C    4.896555   4.685329   3.573473   2.269798   1.308871
     7  C    4.685329   4.896555   4.097045   2.678980   2.397783
     8  N    3.650762   4.165518   3.708150   2.425659   2.832628
     9  C    2.415532   2.802382   2.453360   1.421114   2.425659
    10  C    1.371900   2.426003   2.818481   2.453360   3.708150
    11  H    1.085259   2.169371   3.398690   3.887492   5.250537
    12  H    2.169371   1.085259   2.133023   3.403300   4.531191
    13  H    3.425654   2.156469   1.085136   2.151537   2.603416
    14  H    5.961272   5.654452   4.450432   3.258389   2.052748
    15  H    5.654452   5.961272   5.184418   3.766007   3.364687
    16  H    2.156469   3.425654   3.903288   3.423069   4.572360
                    6          7          8          9         10
     6  C    0.000000
     7  C    1.424904   0.000000
     8  N    2.397783   1.308871   0.000000
     9  C    2.678980   2.269798   1.363207   0.000000
    10  C    4.097045   3.573473   2.401389   1.419011   0.000000
    11  H    5.960875   5.656188   4.531191   3.403300   2.133023
    12  H    5.656188   5.960875   5.250537   3.887492   3.398690
    13  H    3.903631   4.727105   4.572360   3.423069   3.903288
    14  H    1.087592   2.181302   3.364687   3.766007   5.184418
    15  H    2.181302   1.087592   2.052748   3.258389   4.450432
    16  H    4.727105   3.903631   2.603416   2.151537   1.085136
                   11         12         13         14         15
    11  H    0.000000
    12  H    2.484071   0.000000
    13  H    4.314390   2.494756   0.000000
    14  H    7.032288   6.574214   4.586899   0.000000
    15  H    6.574214   7.032288   5.792636   2.509099   0.000000
    16  H    2.494756   4.314390   4.987841   5.792636   4.586899
                   16
    16  H    0.000000
 Stoichiometry    C8H6N2
 Framework group  C1[X(C8H6N2)]
 Deg. of freedom    42
 Full point group                 C1      NOp   1
 RotChk:  IX=3 Diff= 1.64D-15
 Largest Abelian subgroup         C1      NOp   1
 Largest concise Abelian subgroup C1      NOp   1
                         Standard orientation:                         
 ---------------------------------------------------------------------
 Center     Atomic      Atomic             Coordinates (Angstroms)
 Number     Number       Type             X           Y           Z
 ---------------------------------------------------------------------
      1          6           0       -2.372197    0.710202    0.000000
      2          6           0       -2.372197   -0.710202    0.000000
      3          6           0       -1.191750   -1.409241   -0.000000
      4          6           0        0.043335   -0.710557    0.000000
      5          7           0        1.209628   -1.416314   -0.000000
      6          6           0        2.313132   -0.712452   -0.000000
      7          6           0        2.313132    0.712452   -0.000000
      8          7           0        1.209628    1.416314   -0.000000
      9          6           0        0.043335    0.710557    0.000000
     10          6           0       -1.191750    1.409241   -0.000000
     11          1           0       -3.318210    1.242035    0.000000
     12          1           0       -3.318210   -1.242036    0.000001
     13          1           0       -1.160296   -2.493921   -0.000001
     14          1           0        3.255992   -1.254549    0.000003
     15          1           0        3.255992    1.254549    0.000003
     16          1           0       -1.160296    2.493921   -0.000001
 ---------------------------------------------------------------------
 Rotational constants (GHZ):           3.1771838           1.3133209           0.9292189
 Leave Link  202 at Tue Mar 25 12:14:52 2025, MaxMem=  8589934592 cpu:               0.1 elap:               0.0
 (Enter /apps/gaussian/g16-c01-avx/g16/l301.exe)
 Standard basis: 6-31++G(d,p) (6D, 7F)
 Ernie: Thresh=  0.10000D-02 Tol=  0.10000D-05 Strict=F.
 There are   226 symmetry adapted cartesian basis functions of A   symmetry.
 There are   226 symmetry adapted basis functions of A   symmetry.
   226 basis functions,   368 primitive gaussians,   226 cartesian basis functions
    34 alpha electrons       34 beta electrons
       nuclear repulsion energy       466.8237603854 Hartrees.
 IExCor= 4336 DFT=T Ex+Corr=M062X ExCW=0 ScaHFX=  0.540000
 ScaDFX=  1.000000  1.000000  1.000000  1.000000 ScalE2=  1.000000  1.000000
 IRadAn=      5 IRanWt=     -1 IRanGd=            0 ICorTp=0 IEmpDi=  4
 NAtoms=   16 NActive=   16 NUniq=   16 SFac= 1.00D+00 NAtFMM=   60 NAOKFM=F Big=F
 Integral buffers will be    131072 words long.
 Raffenetti 2 integral format.
 Two-electron integral symmetry is turned on.
 ------------------------------------------------------------------------------
 Polarizable Continuum Model (PCM)
 =================================
 Model                : PCM.
 Atomic radii         : SMD-Coulomb.
 Polarization charges : Total charges.
 Charge compensation  : None.
 Solution method      : On-the-fly selection.
 Cavity type          : VdW (van der Waals Surface) (Alpha=1.000).
 Cavity algorithm     : GePol (No added spheres)
                        Default sphere list used, NSphG=   16.
                        Lebedev-Laikov grids with approx.  5.0 points / Ang**2.
                        Smoothing algorithm: York/Karplus (Gamma=1.0000).
                        Polarization charges: spherical gaussians, with
                                              point-specific exponents (IZeta= 3).
                        Self-potential: point-specific (ISelfS= 7).
                        Self-field    : sphere-specific E.n sum rule (ISelfD= 2).
 Solvent              : Water, Eps=  78.355300 Eps(inf)=   1.777849
 ------------------------------------------------------------------------------
 Spheres list:
 ISph  on   Nord     Re0    Alpha      Xe            Ye            Ze
    1   C      1    1.8500  1.000     -2.372197      0.710202      0.000000
    2   C      2    1.8500  1.000     -2.372197     -0.710202      0.000000
    3   C      3    1.8500  1.000     -1.191750     -1.409241     -0.000000
    4   C      4    1.8500  1.000      0.043335     -0.710557      0.000000
    5   N      5    1.8900  1.000      1.209628     -1.416314     -0.000000
    6   C      6    1.8500  1.000      2.313132     -0.712452     -0.000000
    7   C      7    1.8500  1.000      2.313132      0.712452     -0.000000
    8   N      8    1.8900  1.000      1.209628      1.416314     -0.000000
    9   C      9    1.8500  1.000      0.043335      0.710557      0.000000
   10   C     10    1.8500  1.000     -1.191750      1.409241     -0.000000
   11   H     11    1.2000  1.000     -3.318210      1.242035      0.000000
   12   H     12    1.2000  1.000     -3.318210     -1.242036      0.000001
   13   H     13    1.2000  1.000     -1.160296     -2.493921     -0.000001
   14   H     14    1.2000  1.000      3.255992     -1.254549      0.000003
   15   H     15    1.2000  1.000      3.255992      1.254549      0.000003
   16   H     16    1.2000  1.000     -1.160296      2.493921     -0.000001
 ------------------------------------------------------------------------------
 GePol: Number of generator spheres                  =      16
 GePol: Total number of spheres                      =      16
 GePol: Number of exposed spheres                    =      16 (100.00%)
 GePol: Number of points                             =    1376
 GePol: Average weight of points                     =       0.11
 GePol: Minimum weight of points                     =   0.25D-09
 GePol: Maximum weight of points                     =    0.17992
 GePol: Number of points with low weight             =      80
 GePol: Fraction of low-weight points (<1% of avg)   =       5.81%
 GePol: Cavity surface area                          =    154.514 Ang**2
 GePol: Cavity volume                                =    139.051 Ang**3
 ------------------------------------------------------------------------------
 Atomic radii for non-electrostatic terms: SMD-CDS.
 ------------------------------------------------------------------------------
 PCM non-electrostatic energy =         0.0007190649 Hartrees.
 Nuclear repulsion after PCM non-electrostatic terms =      466.8244794503 Hartrees.
 Leave Link  301 at Tue Mar 25 12:14:52 2025, MaxMem=  8589934592 cpu:               1.1 elap:               0.1
 (Enter /apps/gaussian/g16-c01-avx/g16/l302.exe)
 NPDir=0 NMtPBC=     1 NCelOv=     1 NCel=       1 NClECP=     1 NCelD=      1
         NCelK=      1 NCelE2=     1 NClLst=     1 CellRange=     0.0.
 One-electron integrals computed using PRISM.
 One-electron integral symmetry used in STVInt
 NBasis=   226 RedAO= T EigKep=  1.49D-06  NBF=   226
 NBsUse=   225 1.00D-06 EigRej=  4.68D-07 NBFU=   225
 Precomputing XC quadrature grid using
 IXCGrd= 4 IRadAn=           5 IRanWt=          -1 IRanGd=           0 AccXCQ= 0.00D+00.
 Generated NRdTot=       0 NPtTot=           0 NUsed=           0 NTot=          32
 NSgBfM=   226   226   226   226   226 MxSgAt=    16 MxSgA2=    16.
 Leave Link  302 at Tue Mar 25 12:14:52 2025, MaxMem=  8589934592 cpu:               3.1 elap:               0.2
 (Enter /apps/gaussian/g16-c01-avx/g16/l303.exe)
 DipDrv:  MaxL=1.
 Leave Link  303 at Tue Mar 25 12:14:52 2025, MaxMem=  8589934592 cpu:               0.5 elap:               0.1
 (Enter /apps/gaussian/g16-c01-avx/g16/l401.exe)
 Initial guess from the checkpoint file:  "entry_0_oxidised_neutral.chk"
 B after Tr=     0.000000    0.000000    0.000000
         Rot=    1.000000   -0.000000   -0.000000   -0.000000 Ang=   0.00 deg.
 Guess basis will be translated and rotated to current coordinates.
 JPrj=2 DoOrth=T DoCkMO=T.
 Leave Link  401 at Tue Mar 25 12:14:52 2025, MaxMem=  8589934592 cpu:               2.2 elap:               0.2
 (Enter /apps/gaussian/g16-c01-avx/g16/l502.exe)
 Integral symmetry usage will be decided dynamically.
 Closed shell SCF:
 Using DIIS extrapolation, IDIIS=  1040.
 NGot=  8589934592 LenX=  8589826170 LenY=  8589774653
 Requested convergence on RMS density matrix=1.00D-08 within 128 cycles.
 Requested convergence on MAX density matrix=1.00D-06.
 Requested convergence on             energy=1.00D-06.
 No special actions if energy rises.
 Fock matrices will be formed incrementally for  20 cycles.

 Cycle   1  Pass 1  IDiag  1:
 FoFJK:  IHMeth= 1 ICntrl=       0 DoSepK=F KAlg= 0 I1Cent=           0 FoldK=F
 IRaf= 950000000 NMat=       1 IRICut=       1 DoRegI=T DoRafI=F ISym2E= 0 IDoP0=0 IntGTp=1.
 FoFCou: FMM=F IPFlag=           0 FMFlag=      100000 FMFlg1=           0
         NFxFlg=           0 DoJE=F BraDBF=F KetDBF=F FulRan=T
         wScrn=  0.000000 ICntrl=         0 IOpCl=  0 I1Cent=           0 NGrid=           0
         NMat0=    1 NMatS0=      1 NMatT0=    0 NMatD0=    1 NMtDS0=    0 NMtDT0=    0
 Symmetry not used in FoFCou.
 Inv3:  Mode=1 IEnd=     5680128.
 Iteration    1 A*A^-1 deviation from unit magnitude is 3.66D-15 for   1373.
 Iteration    1 A*A^-1 deviation from orthogonality  is 1.46D-15 for    833     45.
 Iteration    1 A^-1*A deviation from unit magnitude is 3.66D-15 for   1373.
 Iteration    1 A^-1*A deviation from orthogonality  is 1.19D-15 for   1011    162.
 E= -417.818556956843    
 DIIS: error= 1.84D-03 at cycle   1 NSaved=   1.
 NSaved= 1 IEnMin= 1 EnMin= -417.818556956843     IErMin= 1 ErrMin= 1.84D-03
 ErrMax= 1.84D-03  0.00D+00 EMaxC= 1.00D-01 BMatC= 6.44D-04 BMatP= 6.44D-04
 IDIUse=3 WtCom= 9.82D-01 WtEn= 1.84D-02
 Coeff-Com:  0.100D+01
 Coeff-En:   0.100D+01
 Coeff:      0.100D+01
 Gap=     0.256 Goal=   None    Shift=    0.000
 GapD=    0.256 DampG=1.000 DampE=1.000 DampFc=1.0000 IDamp=-1.
 RMSDP=4.90D-03 MaxDP=2.60D-01              OVMax= 1.43D-02

 Cycle   2  Pass 1  IDiag  1:
 RMSU=  3.88D-03    CP:  9.22D-01
 E= -417.820034550870     Delta-E=       -0.001477594027 Rises=F Damp=F
 DIIS: error= 1.33D-03 at cycle   2 NSaved=   2.
 NSaved= 2 IEnMin= 2 EnMin= -417.820034550870     IErMin= 2 ErrMin= 1.33D-03
 ErrMax= 1.33D-03  0.00D+00 EMaxC= 1.00D-01 BMatC= 2.88D-04 BMatP= 6.44D-04
 IDIUse=3 WtCom= 9.87D-01 WtEn= 1.33D-02
 Coeff-Com:  0.329D+00 0.671D+00
 Coeff-En:   0.000D+00 0.100D+01
 Coeff:      0.325D+00 0.675D+00
 Gap=     0.256 Goal=   None    Shift=    0.000
 RMSDP=9.24D-04 MaxDP=3.92D-02 DE=-1.48D-03 OVMax= 5.11D-03

 Cycle   3  Pass 1  IDiag  1:
 RMSU=  5.48D-04    CP:  9.15D-01  1.18D+00
 E= -417.820278894731     Delta-E=       -0.000244343861 Rises=F Damp=F
 DIIS: error= 7.05D-04 at cycle   3 NSaved=   3.
 NSaved= 3 IEnMin= 3 EnMin= -417.820278894731     IErMin= 3 ErrMin= 7.05D-04
 ErrMax= 7.05D-04  0.00D+00 EMaxC= 1.00D-01 BMatC= 8.46D-05 BMatP= 2.88D-04
 IDIUse=3 WtCom= 9.93D-01 WtEn= 7.05D-03
 Coeff-Com: -0.703D-01 0.336D+00 0.734D+00
 Coeff-En:   0.000D+00 0.910D-01 0.909D+00
 Coeff:     -0.698D-01 0.334D+00 0.735D+00
 Gap=     0.256 Goal=   None    Shift=    0.000
 RMSDP=7.28D-04 MaxDP=2.95D-02 DE=-2.44D-04 OVMax= 2.94D-03

 Cycle   4  Pass 1  IDiag  1:
 RMSU=  2.54D-04    CP:  9.06D-01  1.33D+00  1.05D+00
 E= -417.820375174410     Delta-E=       -0.000096279679 Rises=F Damp=F
 DIIS: error= 1.13D-04 at cycle   4 NSaved=   4.
 NSaved= 4 IEnMin= 4 EnMin= -417.820375174410     IErMin= 4 ErrMin= 1.13D-04
 ErrMax= 1.13D-04  0.00D+00 EMaxC= 1.00D-01 BMatC= 2.80D-06 BMatP= 8.46D-05
 IDIUse=3 WtCom= 9.99D-01 WtEn= 1.13D-03
 Coeff-Com: -0.410D-01 0.261D-01 0.154D+00 0.861D+00
 Coeff-En:   0.000D+00 0.000D+00 0.000D+00 0.100D+01
 Coeff:     -0.409D-01 0.260D-01 0.154D+00 0.861D+00
 Gap=     0.256 Goal=   None    Shift=    0.000
 RMSDP=1.81D-04 MaxDP=5.77D-03 DE=-9.63D-05 OVMax= 8.09D-04

 Cycle   5  Pass 1  IDiag  1:
 RMSU=  4.70D-05    CP:  9.05D-01  1.37D+00  1.13D+00  1.23D+00
 E= -417.820379397322     Delta-E=       -0.000004222912 Rises=F Damp=F
 DIIS: error= 3.92D-05 at cycle   5 NSaved=   5.
 NSaved= 5 IEnMin= 5 EnMin= -417.820379397322     IErMin= 5 ErrMin= 3.92D-05
 ErrMax= 3.92D-05  0.00D+00 EMaxC= 1.00D-01 BMatC= 3.45D-07 BMatP= 2.80D-06
 IDIUse=1 WtCom= 1.00D+00 WtEn= 0.00D+00
 Coeff-Com: -0.653D-02-0.160D-01-0.194D-01 0.254D+00 0.788D+00
 Coeff:     -0.653D-02-0.160D-01-0.194D-01 0.254D+00 0.788D+00
 Gap=     0.256 Goal=   None    Shift=    0.000
 RMSDP=4.06D-05 MaxDP=1.54D-03 DE=-4.22D-06 OVMax= 2.49D-04

 Cycle   6  Pass 1  IDiag  1:
 RMSU=  1.23D-05    CP:  9.04D-01  1.37D+00  1.13D+00  1.32D+00  9.70D-01
 E= -417.820379849658     Delta-E=       -0.000000452337 Rises=F Damp=F
 DIIS: error= 1.48D-05 at cycle   6 NSaved=   6.
 NSaved= 6 IEnMin= 6 EnMin= -417.820379849658     IErMin= 6 ErrMin= 1.48D-05
 ErrMax= 1.48D-05  0.00D+00 EMaxC= 1.00D-01 BMatC= 2.45D-08 BMatP= 3.45D-07
 IDIUse=1 WtCom= 1.00D+00 WtEn= 0.00D+00
 Coeff-Com: -0.344D-03-0.583D-02-0.116D-01 0.302D-01 0.242D+00 0.746D+00
 Coeff:     -0.344D-03-0.583D-02-0.116D-01 0.302D-01 0.242D+00 0.746D+00
 Gap=     0.256 Goal=   None    Shift=    0.000
 RMSDP=1.05D-05 MaxDP=6.98D-04 DE=-4.52D-07 OVMax= 1.14D-04

 Cycle   7  Pass 1  IDiag  1:
 RMSU=  4.23D-06    CP:  9.04D-01  1.38D+00  1.13D+00  1.34D+00  9.70D-01
                    CP:  1.22D+00
 E= -417.820379882639     Delta-E=       -0.000000032980 Rises=F Damp=F
 DIIS: error= 7.43D-06 at cycle   7 NSaved=   7.
 NSaved= 7 IEnMin= 7 EnMin= -417.820379882639     IErMin= 7 ErrMin= 7.43D-06
 ErrMax= 7.43D-06  0.00D+00 EMaxC= 1.00D-01 BMatC= 4.62D-09 BMatP= 2.45D-08
 IDIUse=1 WtCom= 1.00D+00 WtEn= 0.00D+00
 Coeff-Com:  0.813D-03-0.878D-03-0.221D-02-0.214D-01 0.311D-03 0.300D+00
 Coeff-Com:  0.724D+00
 Coeff:      0.813D-03-0.878D-03-0.221D-02-0.214D-01 0.311D-03 0.300D+00
 Coeff:      0.724D+00
 Gap=     0.256 Goal=   None    Shift=    0.000
 RMSDP=2.95D-06 MaxDP=1.49D-04 DE=-3.30D-08 OVMax= 3.32D-05

 Cycle   8  Pass 1  IDiag  1:
 RMSU=  1.07D-06    CP:  9.04D-01  1.38D+00  1.13D+00  1.35D+00  9.90D-01
                    CP:  1.31D+00  9.34D-01
 E= -417.820379889611     Delta-E=       -0.000000006972 Rises=F Damp=F
 DIIS: error= 2.17D-06 at cycle   8 NSaved=   8.
 NSaved= 8 IEnMin= 8 EnMin= -417.820379889611     IErMin= 8 ErrMin= 2.17D-06
 ErrMax= 2.17D-06  0.00D+00 EMaxC= 1.00D-01 BMatC= 2.41D-10 BMatP= 4.62D-09
 IDIUse=1 WtCom= 1.00D+00 WtEn= 0.00D+00
 Coeff-Com:  0.155D-03 0.108D-03 0.106D-02-0.568D-02-0.220D-01-0.235D-01
 Coeff-Com:  0.820D-01 0.968D+00
 Coeff:      0.155D-03 0.108D-03 0.106D-02-0.568D-02-0.220D-01-0.235D-01
 Coeff:      0.820D-01 0.968D+00
 Gap=     0.256 Goal=   None    Shift=    0.000
 RMSDP=9.91D-07 MaxDP=5.95D-05 DE=-6.97D-09 OVMax= 2.40D-05

 Cycle   9  Pass 1  IDiag  1:
 RMSU=  3.05D-07    CP:  9.04D-01  1.38D+00  1.13D+00  1.35D+00  9.90D-01
                    CP:  1.34D+00  1.02D+00  9.65D-01
 E= -417.820379890443     Delta-E=       -0.000000000832 Rises=F Damp=F
 DIIS: error= 7.55D-07 at cycle   9 NSaved=   9.
 NSaved= 9 IEnMin= 9 EnMin= -417.820379890443     IErMin= 9 ErrMin= 7.55D-07
 ErrMax= 7.55D-07  0.00D+00 EMaxC= 1.00D-01 BMatC= 7.83D-11 BMatP= 2.41D-10
 IDIUse=1 WtCom= 1.00D+00 WtEn= 0.00D+00
 Coeff-Com: -0.283D-04 0.776D-04 0.726D-03 0.300D-03-0.859D-02-0.448D-01
 Coeff-Com: -0.631D-01 0.422D+00 0.693D+00
 Coeff:     -0.283D-04 0.776D-04 0.726D-03 0.300D-03-0.859D-02-0.448D-01
 Coeff:     -0.631D-01 0.422D+00 0.693D+00
 Gap=     0.256 Goal=   None    Shift=    0.000
 RMSDP=2.40D-07 MaxDP=1.23D-05 DE=-8.32D-10 OVMax= 9.54D-06

 Cycle  10  Pass 1  IDiag  1:
 RMSU=  1.16D-07    CP:  9.04D-01  1.38D+00  1.13D+00  1.35D+00  9.88D-01
                    CP:  1.35D+00  1.03D+00  9.53D-01  1.21D+00
 E= -417.820379890614     Delta-E=       -0.000000000171 Rises=F Damp=F
 DIIS: error= 4.10D-07 at cycle  10 NSaved=  10.
 NSaved=10 IEnMin=10 EnMin= -417.820379890614     IErMin=10 ErrMin= 4.10D-07
 ErrMax= 4.10D-07  0.00D+00 EMaxC= 1.00D-01 BMatC= 7.44D-12 BMatP= 7.83D-11
 IDIUse=1 WtCom= 1.00D+00 WtEn= 0.00D+00
 Coeff-Com: -0.368D-04-0.334D-04-0.623D-04 0.161D-02 0.325D-02-0.655D-02
 Coeff-Com: -0.441D-01-0.975D-01 0.137D+00 0.101D+01
 Coeff:     -0.368D-04-0.334D-04-0.623D-04 0.161D-02 0.325D-02-0.655D-02
 Coeff:     -0.441D-01-0.975D-01 0.137D+00 0.101D+01
 Gap=     0.256 Goal=   None    Shift=    0.000
 RMSDP=2.25D-07 MaxDP=1.56D-05 DE=-1.71D-10 OVMax= 5.97D-06

 Cycle  11  Pass 1  IDiag  1:
 RMSU=  6.50D-08    CP:  9.04D-01  1.38D+00  1.13D+00  1.35D+00  9.88D-01
                    CP:  1.34D+00  1.02D+00  1.00D+00  1.33D+00  1.02D+00
 E= -417.820379890648     Delta-E=       -0.000000000034 Rises=F Damp=F
 DIIS: error= 1.09D-07 at cycle  11 NSaved=  11.
 NSaved=11 IEnMin=11 EnMin= -417.820379890648     IErMin=11 ErrMin= 1.09D-07
 ErrMax= 1.09D-07  0.00D+00 EMaxC= 1.00D-01 BMatC= 5.68D-13 BMatP= 7.44D-12
 IDIUse=1 WtCom= 1.00D+00 WtEn= 0.00D+00
 Coeff-Com: -0.502D-05-0.132D-04-0.733D-04 0.287D-03 0.135D-02 0.314D-02
 Coeff-Com: -0.313D-02-0.509D-01-0.511D-01 0.178D+00 0.923D+00
 Coeff:     -0.502D-05-0.132D-04-0.733D-04 0.287D-03 0.135D-02 0.314D-02
 Coeff:     -0.313D-02-0.509D-01-0.511D-01 0.178D+00 0.923D+00
 Gap=     0.256 Goal=   None    Shift=    0.000
 RMSDP=4.39D-08 MaxDP=1.75D-06 DE=-3.44D-11 OVMax= 1.69D-06

 Cycle  12  Pass 1  IDiag  1:
 RMSU=  1.40D-08    CP:  9.04D-01  1.38D+00  1.13D+00  1.35D+00  9.88D-01
                    CP:  1.34D+00  1.02D+00  9.98D-01  1.36D+00  1.10D+00
                    CP:  1.10D+00
 E= -417.820379890652     Delta-E=       -0.000000000004 Rises=F Damp=F
 DIIS: error= 4.43D-08 at cycle  12 NSaved=  12.
 NSaved=12 IEnMin=12 EnMin= -417.820379890652     IErMin=12 ErrMin= 4.43D-08
 ErrMax= 4.43D-08  0.00D+00 EMaxC= 1.00D-01 BMatC= 1.87D-13 BMatP= 5.68D-13
 IDIUse=1 WtCom= 1.00D+00 WtEn= 0.00D+00
 Coeff-Com:  0.981D-06-0.200D-05-0.280D-04-0.169D-04 0.297D-03 0.210D-02
 Coeff-Com:  0.303D-02-0.130D-01-0.412D-01-0.274D-01 0.433D+00 0.643D+00
 Coeff:      0.981D-06-0.200D-05-0.280D-04-0.169D-04 0.297D-03 0.210D-02
 Coeff:      0.303D-02-0.130D-01-0.412D-01-0.274D-01 0.433D+00 0.643D+00
 Gap=     0.256 Goal=   None    Shift=    0.000
 RMSDP=1.44D-08 MaxDP=8.71D-07 DE=-3.64D-12 OVMax= 3.37D-07

 Cycle  13  Pass 1  IDiag  1:
 RMSU=  3.73D-09    CP:  9.04D-01  1.38D+00  1.13D+00  1.35D+00  9.88D-01
                    CP:  1.34D+00  1.02D+00  9.97D-01  1.36D+00  1.11D+00
                    CP:  1.16D+00  1.04D+00
 E= -417.820379890654     Delta-E=       -0.000000000003 Rises=F Damp=F
 DIIS: error= 5.98D-09 at cycle  13 NSaved=  13.
 NSaved=13 IEnMin=13 EnMin= -417.820379890654     IErMin=13 ErrMin= 5.98D-09
 ErrMax= 5.98D-09  0.00D+00 EMaxC= 1.00D-01 BMatC= 5.54D-15 BMatP= 1.87D-13
 IDIUse=1 WtCom= 1.00D+00 WtEn= 0.00D+00
 Coeff-Com:  0.608D-06 0.177D-05 0.369D-05-0.365D-04-0.136D-03-0.764D-04
 Coeff-Com:  0.981D-03 0.486D-02-0.156D-02-0.285D-01-0.359D-01 0.107D+00
 Coeff-Com:  0.953D+00
 Coeff:      0.608D-06 0.177D-05 0.369D-05-0.365D-04-0.136D-03-0.764D-04
 Coeff:      0.981D-03 0.486D-02-0.156D-02-0.285D-01-0.359D-01 0.107D+00
 Coeff:      0.953D+00
 Gap=     0.256 Goal=   None    Shift=    0.000
 RMSDP=5.05D-09 MaxDP=1.74D-07 DE=-2.56D-12 OVMax= 9.60D-08

 Error on total polarization charges =  0.04226
 SCF Done:  E(RM062X) =  -417.820379891     A.U. after   13 cycles
            NFock= 13  Conv=0.51D-08     -V/T= 2.0085
 KE= 4.142838493383D+02 PE=-1.902732562453D+03 EE= 6.038038537736D+02
 SMD-CDS (non-electrostatic) energy       (kcal/mol) =       0.45
 (included in total energy above)
 Leave Link  502 at Tue Mar 25 12:15:26 2025, MaxMem=  8589934592 cpu:             538.5 elap:              34.2
 (Enter /apps/gaussian/g16-c01-avx/g16/l601.exe)
 Copying SCF densities to generalized density rwf, IOpCl= 0 IROHF=0.

 **********************************************************************

            Population analysis using the SCF Density.

 **********************************************************************

 Orbital symmetries:
       Occupied  (A) (A) (A) (A) (A) (A) (A) (A) (A) (A) (A) (A)
                 (A) (A) (A) (A) (A) (A) (A) (A) (A) (A) (A) (A)
                 (A) (A) (A) (A) (A) (A) (A) (A) (A) (A)
       Virtual   (A) (A) (A) (A) (A) (A) (A) (A) (A) (A) (A) (A)
                 (A) (A) (A) (A) (A) (A) (A) (A) (A) (A) (A) (A)
                 (A) (A) (A) (A) (A) (A) (A) (A) (A) (A) (A) (A)
                 (A) (A) (A) (A) (A) (A) (A) (A) (A) (A) (A) (A)
                 (A) (A) (A) (A) (A) (A) (A) (A) (A) (A) (A) (A)
                 (A) (A) (A) (A) (A) (A) (A) (A) (A) (A) (A) (A)
                 (A) (A) (A) (A) (A) (A) (A) (A) (A) (A) (A) (A)
                 (A) (A) (A) (A) (A) (A) (A) (A) (A) (A) (A) (A)
                 (A) (A) (A) (A) (A) (A) (A) (A) (A) (A) (A) (A)
                 (A) (A) (A) (A) (A) (A) (A) (A) (A) (A) (A) (A)
                 (A) (A) (A) (A) (A) (A) (A) (A) (A) (A) (A) (A)
                 (A) (A) (A) (A) (A) (A) (A) (A) (A) (A) (A) (A)
                 (A) (A) (A) (A) (A) (A) (A) (A) (A) (A) (A) (A)
                 (A) (A) (A) (A) (A) (A) (A) (A) (A) (A) (A) (A)
                 (A) (A) (A) (A) (A) (A) (A) (A) (A) (A) (A) (A)
                 (A) (A) (A) (A) (A) (A) (A) (A) (A) (A) (A)
 The electronic state is 1-A.
 Alpha  occ. eigenvalues --  -14.78969 -14.78968 -10.60135 -10.60125 -10.60068
 Alpha  occ. eigenvalues --  -10.60061 -10.56466 -10.56404 -10.56214 -10.56212
 Alpha  occ. eigenvalues --   -1.10371  -1.02945  -0.96197  -0.86342  -0.85486
 Alpha  occ. eigenvalues --   -0.75961  -0.73871  -0.69685  -0.61712  -0.61603
 Alpha  occ. eigenvalues --   -0.58617  -0.53868  -0.51686  -0.51230  -0.49969
 Alpha  occ. eigenvalues --   -0.49279  -0.42563  -0.42303  -0.42158  -0.41394
 Alpha  occ. eigenvalues --   -0.39955  -0.32108  -0.31238  -0.30147
 Alpha virt. eigenvalues --   -0.04580  -0.00084   0.00493   0.01482   0.01805
 Alpha virt. eigenvalues --    0.02904   0.03510   0.03519   0.05433   0.05858
 Alpha virt. eigenvalues --    0.06131   0.08003   0.08434   0.08844   0.10166
 Alpha virt. eigenvalues --    0.10496   0.10921   0.12581   0.12811   0.13111
 Alpha virt. eigenvalues --    0.13563   0.14121   0.14328   0.14750   0.15423
 Alpha virt. eigenvalues --    0.15561   0.15837   0.16179   0.16382   0.17893
 Alpha virt. eigenvalues --    0.18104   0.19329   0.19840   0.20424   0.20871
 Alpha virt. eigenvalues --    0.22583   0.22713   0.23587   0.24872   0.25016
 Alpha virt. eigenvalues --    0.25562   0.26495   0.27243   0.27746   0.28945
 Alpha virt. eigenvalues --    0.29041   0.29969   0.30445   0.31464   0.31609
 Alpha virt. eigenvalues --    0.32635   0.33062   0.34668   0.34724   0.36085
 Alpha virt. eigenvalues --    0.37459   0.38514   0.39758   0.42320   0.43163
 Alpha virt. eigenvalues --    0.43586   0.43940   0.47876   0.56672   0.59816
 Alpha virt. eigenvalues --    0.65170   0.65580   0.68700   0.70270   0.70946
 Alpha virt. eigenvalues --    0.71543   0.75888   0.76098   0.77322   0.77947
 Alpha virt. eigenvalues --    0.79137   0.79649   0.80106   0.80998   0.85785
 Alpha virt. eigenvalues --    0.88844   0.91775   0.96096   0.98092   0.98841
 Alpha virt. eigenvalues --    1.00144   1.02132   1.03480   1.04289   1.04892
 Alpha virt. eigenvalues --    1.07996   1.08526   1.09932   1.10877   1.12250
 Alpha virt. eigenvalues --    1.14049   1.15578   1.17468   1.18197   1.19612
 Alpha virt. eigenvalues --    1.21946   1.23106   1.26586   1.26713   1.26855
 Alpha virt. eigenvalues --    1.28698   1.32825   1.35640   1.36582   1.39378
 Alpha virt. eigenvalues --    1.41465   1.42283   1.46156   1.46249   1.48930
 Alpha virt. eigenvalues --    1.49033   1.51353   1.53744   1.57755   1.61825
 Alpha virt. eigenvalues --    1.76608   1.80385   1.85199   1.86822   1.87270
 Alpha virt. eigenvalues --    1.89247   1.92467   1.97934   1.98100   1.98521
 Alpha virt. eigenvalues --    2.02390   2.03132   2.04805   2.05934   2.08212
 Alpha virt. eigenvalues --    2.08674   2.09239   2.19848   2.24492   2.25575
 Alpha virt. eigenvalues --    2.28474   2.28844   2.33716   2.34803   2.35521
 Alpha virt. eigenvalues --    2.37735   2.41298   2.41881   2.47654   2.48366
 Alpha virt. eigenvalues --    2.48839   2.48845   2.51447   2.56589   2.57193
 Alpha virt. eigenvalues --    2.60576   2.61115   2.61505   2.65024   2.66486
 Alpha virt. eigenvalues --    2.71994   2.72147   2.72936   2.75917   2.78316
 Alpha virt. eigenvalues --    2.79171   2.87310   2.90555   3.00095   3.04535
 Alpha virt. eigenvalues --    3.08035   3.12009   3.21758   3.28706   3.29147
 Alpha virt. eigenvalues --    3.34288   3.37204   3.41055   3.52032   3.74015
 Alpha virt. eigenvalues --    3.86608   4.13769   4.31846   4.36172   4.36338
 Alpha virt. eigenvalues --    4.43445   4.50230   4.55432   4.63414   4.70406
 Alpha virt. eigenvalues --    4.92850
          Condensed to atoms (all electrons):
               1          2          3          4          5          6
     1  C    5.717386   0.384765  -0.385547  -0.433567   0.017718   0.097355
     2  C    0.384765   5.717385   0.173792   0.474935   0.130010  -0.141819
     3  C   -0.385547   0.173792   6.405789   0.449618  -0.213758  -0.010632
     4  C   -0.433567   0.474935   0.449618  11.403073   0.390936   0.107880
     5  N    0.017718   0.130010  -0.213758   0.390936   6.972210   0.116635
     6  C    0.097355  -0.141819  -0.010632   0.107880   0.116635   5.523044
     7  C   -0.141819   0.097355  -0.012284  -0.168002   0.108305  -0.018010
     8  N    0.130010   0.017718  -0.053991  -0.121284  -0.004808   0.108305
     9  C    0.474935  -0.433567  -1.043695  -5.286606  -0.121284  -0.168002
    10  C    0.173792  -0.385547   0.739150  -1.043695  -0.053991  -0.012284
    11  H    0.317550   0.008488  -0.013352   0.024323   0.000197   0.000641
    12  H    0.008488   0.317550  -0.016435   0.000899   0.001758  -0.001289
    13  H   -0.003647  -0.092223   0.344842  -0.036333  -0.013194   0.007224
    14  H    0.000814  -0.004046   0.011762   0.052483  -0.104161   0.441942
    15  H   -0.004046   0.000814   0.000695  -0.043665   0.010458  -0.114285
    16  H   -0.092223  -0.003647   0.003520   0.069723  -0.002366  -0.000923
               7          8          9         10         11         12
     1  C   -0.141819   0.130010   0.474935   0.173792   0.317550   0.008488
     2  C    0.097355   0.017718  -0.433567  -0.385547   0.008488   0.317550
     3  C   -0.012284  -0.053991  -1.043695   0.739150  -0.013352  -0.016435
     4  C   -0.168002  -0.121284  -5.286606  -1.043695   0.024323   0.000899
     5  N    0.108305  -0.004808  -0.121284  -0.053991   0.000197   0.001758
     6  C   -0.018010   0.108305  -0.168002  -0.012284   0.000641  -0.001289
     7  C    5.523044   0.116635   0.107880  -0.010632  -0.001289   0.000641
     8  N    0.116635   6.972210   0.390936  -0.213758   0.001758   0.000197
     9  C    0.107880   0.390936  11.403073   0.449619   0.000899   0.024323
    10  C   -0.010632  -0.213758   0.449619   6.405789  -0.016435  -0.013352
    11  H   -0.001289   0.001758   0.000899  -0.016435   0.491007  -0.003512
    12  H    0.000641   0.000197   0.024323  -0.013352  -0.003512   0.491007
    13  H   -0.000923  -0.002366   0.069723   0.003520  -0.002306  -0.004174
    14  H   -0.114285   0.010458  -0.043665   0.000695   0.000055  -0.000196
    15  H    0.441942  -0.104161   0.052483   0.011762  -0.000196   0.000055
    16  H    0.007224  -0.013194  -0.036332   0.344842  -0.004174  -0.002306
              13         14         15         16
     1  C   -0.003647   0.000814  -0.004046  -0.092223
     2  C   -0.092223  -0.004046   0.000814  -0.003647
     3  C    0.344842   0.011762   0.000695   0.003520
     4  C   -0.036333   0.052483  -0.043665   0.069723
     5  N   -0.013194  -0.104161   0.010458  -0.002366
     6  C    0.007224   0.441942  -0.114285  -0.000923
     7  C   -0.000923  -0.114285   0.441942   0.007224
     8  N   -0.002366   0.010458  -0.104161  -0.013194
     9  C    0.069723  -0.043665   0.052483  -0.036332
    10  C    0.003520   0.000695   0.011762   0.344842
    11  H   -0.002306   0.000055  -0.000196  -0.004174
    12  H   -0.004174  -0.000196   0.000055  -0.002306
    13  H    0.504612  -0.000002  -0.000194   0.001231
    14  H   -0.000002   0.523924  -0.007635  -0.000194
    15  H   -0.000194  -0.007635   0.523924  -0.000002
    16  H    0.001231  -0.000194  -0.000002   0.504612
 Mulliken charges:
               1
     1  C   -0.261964
     2  C   -0.261964
     3  C   -0.379475
     4  C    0.159282
     5  N   -0.234666
     6  C    0.064218
     7  C    0.064218
     8  N   -0.234666
     9  C    0.159282
    10  C   -0.379475
    11  H    0.196347
    12  H    0.196347
    13  H    0.224211
    14  H    0.232049
    15  H    0.232049
    16  H    0.224211
 Sum of Mulliken charges =  -0.00000
 Mulliken charges with hydrogens summed into heavy atoms:
               1
     1  C   -0.065617
     2  C   -0.065617
     3  C   -0.155265
     4  C    0.159282
     5  N   -0.234666
     6  C    0.296267
     7  C    0.296267
     8  N   -0.234666
     9  C    0.159282
    10  C   -0.155265
 Electronic spatial extent (au):  <R**2>=           1206.3688
 Charge=             -0.0000 electrons
 Dipole moment (field-independent basis, Debye):
    X=             -0.4431    Y=             -0.0000    Z=              0.0000  Tot=              0.4431
 Quadrupole moment (field-independent basis, Debye-Ang):
   XX=            -40.0981   YY=            -61.1704   ZZ=            -61.2060
   XY=              0.0000   XZ=              0.0000   YZ=             -0.0000
 Traceless Quadrupole moment (field-independent basis, Debye-Ang):
   XX=             14.0601   YY=             -7.0122   ZZ=             -7.0479
   XY=              0.0000   XZ=              0.0000   YZ=             -0.0000
 Octapole moment (field-independent basis, Debye-Ang**2):
  XXX=             16.1149  YYY=             -0.0000  ZZZ=              0.0000  XYY=            -16.5573
  XXY=             -0.0000  XXZ=              0.0001  XZZ=              4.7079  YZZ=              0.0000
  YYZ=              0.0000  XYZ=              0.0000
 Hexadecapole moment (field-independent basis, Debye-Ang**3):
 XXXX=           -874.2508 YYYY=           -513.5902 ZZZZ=            -69.9033 XXXY=              0.0000
 XXXZ=              0.0002 YYYX=              0.0000 YYYZ=             -0.0000 ZZZX=              0.0000
 ZZZY=             -0.0000 XXYY=           -244.1665 XXZZ=           -215.6579 YYZZ=           -103.6368
 XXYZ=             -0.0000 YYXZ=              0.0000 ZZXY=             -0.0000
 N-N= 4.668244794503D+02 E-N=-1.902732562803D+03  KE= 4.142838493383D+02
 No NMR shielding tensors so no spin-rotation constants.
 Leave Link  601 at Tue Mar 25 12:15:27 2025, MaxMem=  8589934592 cpu:               1.6 elap:               0.1
 (Enter /apps/gaussian/g16-c01-avx/g16/l9999.exe)
 Unable to Open any file for archive entry.
 1\1\GINC-CX3-3-9\SP\RM062X\6-31++G(d,p)\C8H6N2\DMD216\25-Mar-2025\0\\#
 P M062X/6-31++G(d,p) Geom=AllCheck Guess=Read SCRF=(SMD,Solvent=Water)
 \\Generated Gaussian Input\\0,1\C,0,0.0140139249,0.0000096844,-0.01578
 74691\C,0,0.0140149601,0.0000142219,1.404615767\C,0,1.1944624072,-0.00
 00193497,2.103654027\C,0,2.4295465291,-0.0000580432,1.4049691761\N,0,3
 .5958406137,-0.0000913548,2.1107257091\C,0,4.6993438382,-0.0001265154,
 1.4068626213\C,0,4.6993427971,-0.0001310268,-0.0180411227\N,0,3.595838
 5438,-0.0001001398,-0.7219025976\C,0,2.4295454896,-0.0000623464,-0.016
 1443558\C,0,1.1944603623,-0.0000280995,-0.7148274241\H,0,-0.9319992825
 ,0.0000363097,-0.5476206453\H,0,-0.9319974519,0.0000445418,1.936450361
 \H,0,1.2259172283,-0.000017291,3.1883339327\H,0,5.6422046818,-0.000149
 9032,1.9489594842\H,0,5.6422028515,-0.0001579684,-0.5601393582\H,0,1.2
 259136653,-0.0000329649,-1.7995073746\\Version=ES64L-G16RevC.01\State=
 1-A\HF=-417.8203799\RMSD=5.051e-09\Dipole=-0.1743139,0.0000071,0.00000
 01\Quadrupole=10.453339,-5.2399238,-5.2134152,-0.0004569,-0.0000115,0.
 0000011\PG=C01 [X(C8H6N2)]\\@
 The archive entry for this job was punched.


 WE ARE PERHAPS NOT FAR REMOVED FROM THE TIME WHEN WE SHALL BE ABLE TO SUBMIT
 THE BULK OF CHEMICAL PHENOMENA TO CALCULATION.

            -- JOSEPH LOUIS GAY-LUSSAC
               MEMOIRES DE LA SOCIETE D'ARCUEIL, 2, 207 (1808)
 Job cpu time:       0 days  0 hours  9 minutes 12.4 seconds.
 Elapsed time:       0 days  0 hours  0 minutes 35.2 seconds.
 File lengths (MBytes):  RWF=     65 Int=      0 D2E=      0 Chk=      6 Scr=      1
 Normal termination of Gaussian 16 at Tue Mar 25 12:15:27 2025.
