 Entering Gaussian System, Link 0=g16
 Initial command:
 /apps/gaussian/g16-c01-avx/g16/l1.exe "/var/tmp/pbs.835971[1].pbs/structure_1/oxidized/Gau-2704310.inp" -scrdir="/var/tmp/pbs.835971[1].pbs/structure_1/oxidized/"
 Entering Link 1 = /apps/gaussian/g16-c01-avx/g16/l1.exe PID=   2704311.
  
 Copyright (c) 1988-2019, Gaussian, Inc.  All Rights Reserved.
  
 This is part of the Gaussian(R) 16 program.  It is based on
 the Gaussian(R) 09 system (copyright 2009, Gaussian, Inc.),
 the Gaussian(R) 03 system (copyright 2003, Gaussian, Inc.),
 the Gaussian(R) 98 system (copyright 1998, Gaussian, Inc.),
 the Gaussian(R) 94 system (copyright 1995, Gaussian, Inc.),
 the Gaussian 92(TM) system (copyright 1992, Gaussian, Inc.),
 the Gaussian 90(TM) system (copyright 1990, Gaussian, Inc.),
 the Gaussian 88(TM) system (copyright 1988, Gaussian, Inc.),
 the Gaussian 86(TM) system (copyright 1986, Carnegie Mellon
 University), and the Gaussian 82(TM) system (copyright 1983,
 Carnegie Mellon University). Gaussian is a federally registered
 trademark of Gaussian, Inc.
  
 This software contains proprietary and confidential information,
 including trade secrets, belonging to Gaussian, Inc.
  
 This software is provided under written license and may be
 used, copied, transmitted, or stored only in accord with that
 written license.
  
 The following legend is applicable only to US Government
 contracts under FAR:
  
                    RESTRICTED RIGHTS LEGEND
  
 Use, reproduction and disclosure by the US Government is
 subject to restrictions as set forth in subparagraphs (a)
 and (c) of the Commercial Computer Software - Restricted
 Rights clause in FAR 52.227-19.
  
 Gaussian, Inc.
 340 Quinnipiac St., Bldg. 40, Wallingford CT 06492
  
  
 ---------------------------------------------------------------
 Warning -- This program may not be used in any manner that
 competes with the business of Gaussian, Inc. or will provide
 assistance to any competitor of Gaussian, Inc.  The licensee
 of this program is prohibited from giving any competitor of
 Gaussian, Inc. access to this program.  By using this program,
 the user acknowledges that Gaussian, Inc. is engaged in the
 business of creating and licensing software in the field of
 computational chemistry and represents and warrants to the
 licensee that it is not a competitor of Gaussian, Inc. and that
 it will not use this program in any manner prohibited above.
 ---------------------------------------------------------------
  

 Cite this work as:
 Gaussian 16, Revision C.01,
 M. J. Frisch, G. W. Trucks, H. B. Schlegel, G. E. Scuseria, 
 M. A. Robb, J. R. Cheeseman, G. Scalmani, V. Barone, 
 G. A. Petersson, H. Nakatsuji, X. Li, M. Caricato, A. V. Marenich, 
 J. Bloino, B. G. Janesko, R. Gomperts, B. Mennucci, H. P. Hratchian, 
 J. V. Ortiz, A. F. Izmaylov, J. L. Sonnenberg, D. Williams-Young, 
 F. Ding, F. Lipparini, F. Egidi, J. Goings, B. Peng, A. Petrone, 
 T. Henderson, D. Ranasinghe, V. G. Zakrzewski, J. Gao, N. Rega, 
 G. Zheng, W. Liang, M. Hada, M. Ehara, K. Toyota, R. Fukuda, 
 J. Hasegawa, M. Ishida, T. Nakajima, Y. Honda, O. Kitao, H. Nakai, 
 T. Vreven, K. Throssell, J. A. Montgomery, Jr., J. E. Peralta, 
 F. Ogliaro, M. J. Bearpark, J. J. Heyd, E. N. Brothers, K. N. Kudin, 
 V. N. Staroverov, T. A. Keith, R. Kobayashi, J. Normand, 
 K. Raghavachari, A. P. Rendell, J. C. Burant, S. S. Iyengar, 
 J. Tomasi, M. Cossi, J. M. Millam, M. Klene, C. Adamo, R. Cammi, 
 J. W. Ochterski, R. L. Martin, K. Morokuma, O. Farkas, 
 J. B. Foresman, and D. J. Fox, Gaussian, Inc., Wallingford CT, 2019.
 
 ******************************************
 Gaussian 16:  ES64L-G16RevC.01  3-Jul-2019
                25-Mar-2025 
 ******************************************
 %Chk=entry_0_oxidised_neutral.chk
 %mem=64GB
 %nprocshared=16
 Will use up to   16 processors via shared memory.
 --------------------------------------
 #P M062X/6-31++G(d,p) freq=NoRaman opt
 --------------------------------------
 1/18=20,19=15,26=3,38=1/1,3;
 2/9=110,12=2,17=6,18=5,40=1/2;
 3/5=1,6=6,7=1111,11=2,25=1,30=1,71=1,74=-55/1,2,3;
 4//1;
 5/5=2,38=5/2;
 6/7=2,8=2,9=2,10=2,28=1/1;
 7//1,2,3,16;
 1/18=20,19=15,26=3/3(2);
 2/9=110/2;
 99//99;
 2/9=110/2;
 3/5=1,6=6,7=1111,11=2,25=1,30=1,71=1,74=-55/1,2,3;
 4/5=5,16=3,69=1/1;
 5/5=2,38=5/2;
 7//1,2,3,16;
 1/18=20,19=15,26=3/3(-5);
 2/9=110/2;
 6/7=2,8=2,9=2,10=2,19=2,28=1/1;
 99/9=1/99;
 Leave Link    1 at Tue Mar 25 12:07:41 2025, MaxMem=  8589934592 cpu:               0.4 elap:               0.0
 (Enter /apps/gaussian/g16-c01-avx/g16/l101.exe)
 ------------------------
 Generated Gaussian Input
 ------------------------
 Symbolic Z-matrix:
 Charge =  0 Multiplicity = 1
 C
 C                    1    B1
 C                    2    B2       1    A2
 C                    3    B3       2    A3       1    D3       0
 N                    4    B4       3    A4       2    D4       0
 C                    5    B5       4    A5       3    D5       0
 C                    6    B6       5    A6       4    D6       0
 N                    7    B7       6    A7       4    D7       0
 C                    8    B8       4    A8       7    D8       0
 C                    9    B9       1    A9       8    D9       0
 H                    1    B10      2    A10      10   D10      0
 H                    2    B11      1    A11      3    D11      0
 H                    3    B12      4    A12      2    D12      0
 H                    6    B13      5    A13      7    D13      0
 H                    7    B14      8    A14      6    D14      0
 H                    10   B15      9    A15      1    D15      0
       Variables:
  B1                    1.38883                  
  B2                    1.39584                  
  A2                  119.56886                  
  B3                    1.3898                   
  A3                  121.41959                  
  D3                   -0.00313                  
  B4                    1.34839                  
  A4                  119.61249                  
  D4                 -179.99784                  
  B5                    1.35026                  
  A5                  116.32952                  
  D5                 -179.99881                  
  B6                    1.37965                  
  A6                  122.29451                  
  D6                   -0.00002                  
  B7                    1.35026                  
  A7                  122.29443                  
  D7                   -0.00094                  
  B8                    1.34839                  
  A8                   30.12574                  
  D8                  179.99979                  
  B9                    1.3898                   
  A9                   29.35994                  
  D9                    0.0005                   
  B10                   1.08704                  
  A10                 120.37489                  
  D10                -179.99882                  
  B11                   1.08704                  
  A11                 120.37467                  
  D11                 179.99843                  
  B12                   1.08725                  
  A12                 118.89892                  
  D12                 179.99815                  
  B13                   1.08375                  
  A13                 116.06553                  
  D13                 179.99781                  
  B14                   1.08375                  
  A14                 116.06557                  
  D14                -179.99893                  
  B15                   1.08725                  
  A15                 118.8991                   
  D15                 179.99898                  
 
 ITRead=  0  0  0  0  0  0  0  0  0  0  0  0  0  0  0  0
 MicOpt= -1 -1 -1 -1 -1 -1 -1 -1 -1 -1 -1 -1 -1 -1 -1 -1
 NAtoms=     16 NQM=       16 NQMF=       0 NMMI=      0 NMMIF=      0
                NMic=       0 NMicF=      0.
                    Isotopes and Nuclear Properties:
 (Nuclear quadrupole moments (NQMom) in fm**2, nuclear magnetic moments (NMagM)
  in nuclear magnetons)

  Atom         1           2           3           4           5           6           7           8           9          10
 IAtWgt=          12          12          12          12          14          12          12          14          12          12
 AtmWgt=  12.0000000  12.0000000  12.0000000  12.0000000  14.0030740  12.0000000  12.0000000  14.0030740  12.0000000  12.0000000
 NucSpn=           0           0           0           0           2           0           0           2           0           0
 AtZEff=  -0.0000000  -0.0000000  -0.0000000  -0.0000000  -0.0000000  -0.0000000  -0.0000000  -0.0000000  -0.0000000  -0.0000000
 NQMom=    0.0000000   0.0000000   0.0000000   0.0000000   2.0440000   0.0000000   0.0000000   2.0440000   0.0000000   0.0000000
 NMagM=    0.0000000   0.0000000   0.0000000   0.0000000   0.4037610   0.0000000   0.0000000   0.4037610   0.0000000   0.0000000
 AtZNuc=   6.0000000   6.0000000   6.0000000   6.0000000   7.0000000   6.0000000   6.0000000   7.0000000   6.0000000   6.0000000

  Atom        11          12          13          14          15          16
 IAtWgt=           1           1           1           1           1           1
 AtmWgt=   1.0078250   1.0078250   1.0078250   1.0078250   1.0078250   1.0078250
 NucSpn=           1           1           1           1           1           1
 AtZEff=  -0.0000000  -0.0000000  -0.0000000  -0.0000000  -0.0000000  -0.0000000
 NQMom=    0.0000000   0.0000000   0.0000000   0.0000000   0.0000000   0.0000000
 NMagM=    2.7928460   2.7928460   2.7928460   2.7928460   2.7928460   2.7928460
 AtZNuc=   1.0000000   1.0000000   1.0000000   1.0000000   1.0000000   1.0000000
 Leave Link  101 at Tue Mar 25 12:07:42 2025, MaxMem=  8589934592 cpu:               3.9 elap:               0.3
 (Enter /apps/gaussian/g16-c01-avx/g16/l103.exe)

 GradGradGradGradGradGradGradGradGradGradGradGradGradGradGradGradGradGrad
 Berny optimization.
 Initialization pass.
                           ----------------------------
                           !    Initial Parameters    !
                           ! (Angstroms and Degrees)  !
 --------------------------                            --------------------------
 ! Name  Definition              Value          Derivative Info.                !
 --------------------------------------------------------------------------------
 ! R1    R(1,2)                  1.3888         estimate D2E/DX2                !
 ! R2    R(1,10)                 1.3958         estimate D2E/DX2                !
 ! R3    R(1,11)                 1.087          estimate D2E/DX2                !
 ! R4    R(2,3)                  1.3958         estimate D2E/DX2                !
 ! R5    R(2,12)                 1.087          estimate D2E/DX2                !
 ! R6    R(3,4)                  1.3898         estimate D2E/DX2                !
 ! R7    R(3,13)                 1.0872         estimate D2E/DX2                !
 ! R8    R(4,5)                  1.3484         estimate D2E/DX2                !
 ! R9    R(4,9)                  1.4184         estimate D2E/DX2                !
 ! R10   R(5,6)                  1.3503         estimate D2E/DX2                !
 ! R11   R(6,7)                  1.3797         estimate D2E/DX2                !
 ! R12   R(6,14)                 1.0837         estimate D2E/DX2                !
 ! R13   R(7,8)                  1.3503         estimate D2E/DX2                !
 ! R14   R(7,15)                 1.0837         estimate D2E/DX2                !
 ! R15   R(8,9)                  1.3484         estimate D2E/DX2                !
 ! R16   R(9,10)                 1.3898         estimate D2E/DX2                !
 ! R17   R(10,16)                1.0872         estimate D2E/DX2                !
 ! A1    A(2,1,10)             119.569          estimate D2E/DX2                !
 ! A2    A(2,1,11)             120.3749         estimate D2E/DX2                !
 ! A3    A(10,1,11)            120.0561         estimate D2E/DX2                !
 ! A4    A(1,2,3)              119.5689         estimate D2E/DX2                !
 ! A5    A(1,2,12)             120.3747         estimate D2E/DX2                !
 ! A6    A(3,2,12)             120.0565         estimate D2E/DX2                !
 ! A7    A(2,3,4)              121.4196         estimate D2E/DX2                !
 ! A8    A(2,3,13)             119.6815         estimate D2E/DX2                !
 ! A9    A(4,3,13)             118.8989         estimate D2E/DX2                !
 ! A10   A(3,4,5)              119.6125         estimate D2E/DX2                !
 ! A11   A(3,4,9)              119.0115         estimate D2E/DX2                !
 ! A12   A(5,4,9)              121.376          estimate D2E/DX2                !
 ! A13   A(4,5,6)              116.3295         estimate D2E/DX2                !
 ! A14   A(5,6,7)              122.2945         estimate D2E/DX2                !
 ! A15   A(5,6,14)             116.0655         estimate D2E/DX2                !
 ! A16   A(7,6,14)             121.64           estimate D2E/DX2                !
 ! A17   A(6,7,8)              122.2944         estimate D2E/DX2                !
 ! A18   A(6,7,15)             121.64           estimate D2E/DX2                !
 ! A19   A(8,7,15)             116.0656         estimate D2E/DX2                !
 ! A20   A(7,8,9)              116.3295         estimate D2E/DX2                !
 ! A21   A(4,9,8)              121.3761         estimate D2E/DX2                !
 ! A22   A(4,9,10)             119.0114         estimate D2E/DX2                !
 ! A23   A(8,9,10)             119.6125         estimate D2E/DX2                !
 ! A24   A(1,10,9)             121.4196         estimate D2E/DX2                !
 ! A25   A(1,10,16)            119.6813         estimate D2E/DX2                !
 ! A26   A(9,10,16)            118.8991         estimate D2E/DX2                !
 ! D1    D(10,1,2,3)             0.0015         estimate D2E/DX2                !
 ! D2    D(10,1,2,12)          179.9999         estimate D2E/DX2                !
 ! D3    D(11,1,2,3)          -179.9973         estimate D2E/DX2                !
 ! D4    D(11,1,2,12)            0.0011         estimate D2E/DX2                !
 ! D5    D(2,1,10,9)             0.0009         estimate D2E/DX2                !
 ! D6    D(2,1,10,16)         -179.998          estimate D2E/DX2                !
 ! D7    D(11,1,10,9)          179.9998         estimate D2E/DX2                !
 ! D8    D(11,1,10,16)           0.0008         estimate D2E/DX2                !
 ! D9    D(1,2,3,4)             -0.0031         estimate D2E/DX2                !
 ! D10   D(1,2,3,13)           179.9987         estimate D2E/DX2                !
 ! D11   D(12,2,3,4)           179.9984         estimate D2E/DX2                !
 ! D12   D(12,2,3,13)            0.0003         estimate D2E/DX2                !
 ! D13   D(2,3,4,5)           -179.9978         estimate D2E/DX2                !
 ! D14   D(2,3,4,9)              0.0023         estimate D2E/DX2                !
 ! D15   D(13,3,4,5)             0.0003         estimate D2E/DX2                !
 ! D16   D(13,3,4,9)          -179.9995         estimate D2E/DX2                !
 ! D17   D(3,4,5,6)           -179.9988         estimate D2E/DX2                !
 ! D18   D(9,4,5,6)              0.001          estimate D2E/DX2                !
 ! D19   D(3,4,9,8)            179.9987         estimate D2E/DX2                !
 ! D20   D(3,4,9,10)             0.0001         estimate D2E/DX2                !
 ! D21   D(5,4,9,8)             -0.0012         estimate D2E/DX2                !
 ! D22   D(5,4,9,10)          -179.9997         estimate D2E/DX2                !
 ! D23   D(4,5,6,7)              0.0            estimate D2E/DX2                !
 ! D24   D(4,5,6,14)           179.9978         estimate D2E/DX2                !
 ! D25   D(5,6,7,8)             -0.0009         estimate D2E/DX2                !
 ! D26   D(5,6,7,15)           179.9979         estimate D2E/DX2                !
 ! D27   D(14,6,7,8)          -179.9986         estimate D2E/DX2                !
 ! D28   D(14,6,7,15)            0.0003         estimate D2E/DX2                !
 ! D29   D(6,7,8,9)              0.0008         estimate D2E/DX2                !
 ! D30   D(15,7,8,9)          -179.9982         estimate D2E/DX2                !
 ! D31   D(7,8,9,4)              0.0002         estimate D2E/DX2                !
 ! D32   D(7,8,9,10)           179.9988         estimate D2E/DX2                !
 ! D33   D(4,9,10,1)            -0.0017         estimate D2E/DX2                !
 ! D34   D(4,9,10,16)          179.9973         estimate D2E/DX2                !
 ! D35   D(8,9,10,1)           179.9997         estimate D2E/DX2                !
 ! D36   D(8,9,10,16)           -0.0013         estimate D2E/DX2                !
 --------------------------------------------------------------------------------
 Trust Radius=3.00D-01 FncErr=1.00D-07 GrdErr=1.00D-06 EigMax=2.50D+02 EigMin=1.00D-04
 Number of steps in this run=     89 maximum allowed number of steps=    100.
 GradGradGradGradGradGradGradGradGradGradGradGradGradGradGradGradGradGrad

 Leave Link  103 at Tue Mar 25 12:07:42 2025, MaxMem=  8589934592 cpu:               0.2 elap:               0.0
 (Enter /apps/gaussian/g16-c01-avx/g16/l202.exe)
                          Input orientation:                          
 ---------------------------------------------------------------------
 Center     Atomic      Atomic             Coordinates (Angstroms)
 Number     Number       Type             X           Y           Z
 ---------------------------------------------------------------------
      1          6           0        0.000000    0.000000    0.000000
      2          6           0        0.000000    0.000000    1.388830
      3          6           0        1.214053    0.000000    2.077636
      4          6           0        2.429462   -0.000065    1.403603
      5          7           0        3.580672   -0.000107    2.105642
      6          6           0        4.722064   -0.000144    1.384237
      7          6           0        4.722063   -0.000140    0.004583
      8          7           0        3.580671   -0.000117   -0.716819
      9          6           0        2.429461   -0.000082   -0.014778
     10          6           0        1.214051   -0.000031   -0.688808
     11          1           0       -0.937831    0.000043   -0.549670
     12          1           0       -0.937833    0.000026    1.938496
     13          1           0        1.216190    0.000021    3.164882
     14          1           0        5.644723   -0.000139    1.952749
     15          1           0        5.644722   -0.000137   -0.563929
     16          1           0        1.216182    0.000001   -1.776055
 ---------------------------------------------------------------------
                    Distance matrix (angstroms):
                    1          2          3          4          5
     1  C    0.000000
     2  C    1.388830   0.000000
     3  C    2.406345   1.395843   0.000000
     4  C    2.805777   2.429507   1.389798   0.000000
     5  N    4.153907   3.651717   2.366785   1.348386   0.000000
     6  C    4.920772   4.722066   3.575883   2.292684   1.350259
     7  C    4.722066   4.920775   4.074762   2.685755   2.391071
     8  N    3.651717   4.153909   3.661947   2.412773   2.822462
     9  C    2.429506   2.805780   2.419796   1.418381   2.412772
    10  C    1.395842   2.406345   2.766443   2.419795   3.661946
    11  H    1.087044   2.153441   3.396077   3.892806   5.240950
    12  H    2.153439   1.087044   2.156380   3.409514   4.521596
    13  H    3.390516   2.152552   1.087249   2.138722   2.590901
    14  H    5.972950   5.672822   4.432430   3.261820   2.069706
    15  H    5.672822   5.972952   5.158361   3.769494   3.374450
    16  H    2.152550   3.390515   3.853691   3.403274   4.545150
                    6          7          8          9         10
     6  C    0.000000
     7  C    1.379654   0.000000
     8  N    2.391070   1.350259   0.000000
     9  C    2.685753   2.292684   1.348386   0.000000
    10  C    4.074760   3.575883   2.366786   1.389798   0.000000
    11  H    5.981171   5.686968   4.521593   3.409512   2.156376
    12  H    5.686971   5.981175   5.240952   3.892808   3.396076
    13  H    3.932155   4.720025   4.545149   3.403273   3.853691
    14  H    1.083746   2.155609   3.374449   3.769492   5.158360
    15  H    2.155609   1.083746   2.069706   3.261820   4.432431
    16  H    4.720027   3.932159   2.590904   2.138724   1.087249
                   11         12         13         14         15
    11  H    0.000000
    12  H    2.488166   0.000000
    13  H    4.293915   2.478677   0.000000
    14  H    7.042168   6.582572   4.591424   0.000000
    15  H    6.582569   7.042171   5.789294   2.516677   0.000000
    16  H    2.478668   4.293911   4.940937   5.789296   4.591429
                   16
    16  H    0.000000
 Stoichiometry    C8H6N2
 Framework group  C1[X(C8H6N2)]
 Deg. of freedom    42
 Full point group                 C1      NOp   1
 Largest Abelian subgroup         C1      NOp   1
 Largest concise Abelian subgroup C1      NOp   1
                         Standard orientation:                         
 ---------------------------------------------------------------------
 Center     Atomic      Atomic             Coordinates (Angstroms)
 Number     Number       Type             X           Y           Z
 ---------------------------------------------------------------------
      1          6           0       -2.387683    0.694415   -0.000005
      2          6           0       -2.387684   -0.694415   -0.000012
      3          6           0       -1.173632   -1.383222    0.000022
      4          6           0        0.041777   -0.709191   -0.000001
      5          7           0        1.192987   -1.411231   -0.000010
      6          6           0        2.334379   -0.689827   -0.000007
      7          6           0        2.334381    0.689827    0.000004
      8          7           0        1.192989    1.411231   -0.000006
      9          6           0        0.041779    0.709191   -0.000011
     10          6           0       -1.173631    1.383222    0.000005
     11          1           0       -3.325514    1.244086    0.000012
     12          1           0       -3.325518   -1.244080   -0.000019
     13          1           0       -1.171496   -2.470469    0.000038
     14          1           0        3.257038   -1.258339    0.000023
     15          1           0        3.257040    1.258338    0.000039
     16          1           0       -1.171499    2.470469    0.000043
 ---------------------------------------------------------------------
 Rotational constants (GHZ):           3.2526741           1.3060216           0.9318592
 Leave Link  202 at Tue Mar 25 12:07:42 2025, MaxMem=  8589934592 cpu:               0.1 elap:               0.0
 (Enter /apps/gaussian/g16-c01-avx/g16/l301.exe)
 Standard basis: 6-31++G(d,p) (6D, 7F)
 Ernie: Thresh=  0.10000D-02 Tol=  0.10000D-05 Strict=F.
 There are   226 symmetry adapted cartesian basis functions of A   symmetry.
 There are   226 symmetry adapted basis functions of A   symmetry.
   226 basis functions,   368 primitive gaussians,   226 cartesian basis functions
    34 alpha electrons       34 beta electrons
       nuclear repulsion energy       467.8059718463 Hartrees.
 IExCor= 4336 DFT=T Ex+Corr=M062X ExCW=0 ScaHFX=  0.540000
 ScaDFX=  1.000000  1.000000  1.000000  1.000000 ScalE2=  1.000000  1.000000
 IRadAn=      5 IRanWt=     -1 IRanGd=            0 ICorTp=0 IEmpDi=  4
 NAtoms=   16 NActive=   16 NUniq=   16 SFac= 1.00D+00 NAtFMM=   60 NAOKFM=F Big=F
 Integral buffers will be    131072 words long.
 Raffenetti 2 integral format.
 Two-electron integral symmetry is turned on.
 Leave Link  301 at Tue Mar 25 12:07:43 2025, MaxMem=  8589934592 cpu:               0.8 elap:               0.1
 (Enter /apps/gaussian/g16-c01-avx/g16/l302.exe)
 NPDir=0 NMtPBC=     1 NCelOv=     1 NCel=       1 NClECP=     1 NCelD=      1
         NCelK=      1 NCelE2=     1 NClLst=     1 CellRange=     0.0.
 One-electron integrals computed using PRISM.
 One-electron integral symmetry used in STVInt
 NBasis=   226 RedAO= T EigKep=  1.50D-06  NBF=   226
 NBsUse=   225 1.00D-06 EigRej=  3.81D-07 NBFU=   225
 Precomputing XC quadrature grid using
 IXCGrd= 4 IRadAn=           5 IRanWt=          -1 IRanGd=           0 AccXCQ= 0.00D+00.
 Generated NRdTot=       0 NPtTot=           0 NUsed=           0 NTot=          32
 NSgBfM=   226   226   226   226   226 MxSgAt=    16 MxSgA2=    16.
 Leave Link  302 at Tue Mar 25 12:07:43 2025, MaxMem=  8589934592 cpu:               3.3 elap:               0.2
 (Enter /apps/gaussian/g16-c01-avx/g16/l303.exe)
 DipDrv:  MaxL=1.
 Leave Link  303 at Tue Mar 25 12:07:43 2025, MaxMem=  8589934592 cpu:               0.4 elap:               0.1
 (Enter /apps/gaussian/g16-c01-avx/g16/l401.exe)
 ExpMin= 3.60D-02 ExpMax= 4.17D+03 ExpMxC= 6.27D+02 IAcc=3 IRadAn=         5 AccDes= 0.00D+00
 Harris functional with IExCor= 1009 and IRadAn=       5 diagonalized for initial guess.
 HarFok:  IExCor= 1009 AccDes= 0.00D+00 IRadAn=         5 IDoV= 1 UseB2=F ITyADJ=14
 ICtDFT=  3500011 ScaDFX=  1.000000  1.000000  1.000000  1.000000
 FoFCou: FMM=F IPFlag=           0 FMFlag=      100000 FMFlg1=           0
         NFxFlg=           0 DoJE=T BraDBF=F KetDBF=T FulRan=T
         wScrn=  0.000000 ICntrl=       500 IOpCl=  0 I1Cent=   200000004 NGrid=           0
         NMat0=    1 NMatS0=      1 NMatT0=    0 NMatD0=    1 NMtDS0=    0 NMtDT0=    0
 Petite list used in FoFCou.
 Harris En= -417.560649822079    
 JPrj=0 DoOrth=F DoCkMO=F.
 Leave Link  401 at Tue Mar 25 12:07:45 2025, MaxMem=  8589934592 cpu:              13.1 elap:               0.8
 (Enter /apps/gaussian/g16-c01-avx/g16/l502.exe)
 Integral symmetry usage will be decided dynamically.
 Closed shell SCF:
 Using DIIS extrapolation, IDIIS=  1040.
 NGot=  8589934592 LenX=  8589826170 LenY=  8589774653
 Requested convergence on RMS density matrix=1.00D-08 within 128 cycles.
 Requested convergence on MAX density matrix=1.00D-06.
 Requested convergence on             energy=1.00D-06.
 No special actions if energy rises.
 Fock matrices will be formed incrementally for  20 cycles.

 Cycle   1  Pass 1  IDiag  1:
 FoFJK:  IHMeth= 1 ICntrl=       0 DoSepK=F KAlg= 0 I1Cent=           0 FoldK=F
 IRaf= 950000000 NMat=       1 IRICut=       1 DoRegI=T DoRafI=F ISym2E= 0 IDoP0=0 IntGTp=1.
 FoFCou: FMM=F IPFlag=           0 FMFlag=      100000 FMFlg1=           0
         NFxFlg=           0 DoJE=F BraDBF=F KetDBF=F FulRan=T
         wScrn=  0.000000 ICntrl=         0 IOpCl=  0 I1Cent=           0 NGrid=           0
         NMat0=    1 NMatS0=      1 NMatT0=    0 NMatD0=    1 NMtDS0=    0 NMtDT0=    0
 Symmetry not used in FoFCou.
 E= -417.645428166756    
 DIIS: error= 3.59D-02 at cycle   1 NSaved=   1.
 NSaved= 1 IEnMin= 1 EnMin= -417.645428166756     IErMin= 1 ErrMin= 3.59D-02
 ErrMax= 3.59D-02  0.00D+00 EMaxC= 1.00D-01 BMatC= 1.73D-01 BMatP= 1.73D-01
 IDIUse=3 WtCom= 6.41D-01 WtEn= 3.59D-01
 Coeff-Com:  0.100D+01
 Coeff-En:   0.100D+01
 Coeff:      0.100D+01
 Gap=     0.289 Goal=   None    Shift=    0.000
 GapD=    0.289 DampG=1.000 DampE=0.500 DampFc=0.5000 IDamp=-1.
 Damping current iteration by 5.00D-01
 RMSDP=3.02D-02 MaxDP=1.46D+00              OVMax= 1.52D-01

 Cycle   2  Pass 1  IDiag  1:
 RMSU=  9.33D-03    CP:  8.02D-01
 E= -417.726350631296     Delta-E=       -0.080922464540 Rises=F Damp=T
 DIIS: error= 1.02D-02 at cycle   2 NSaved=   2.
 NSaved= 2 IEnMin= 2 EnMin= -417.726350631296     IErMin= 2 ErrMin= 1.02D-02
 ErrMax= 1.02D-02  0.00D+00 EMaxC= 1.00D-01 BMatC= 2.02D-02 BMatP= 1.73D-01
 IDIUse=3 WtCom= 8.98D-01 WtEn= 1.02D-01
 Coeff-Com: -0.249D+00 0.125D+01
 Coeff-En:   0.000D+00 0.100D+01
 Coeff:     -0.224D+00 0.122D+01
 Gap=     0.314 Goal=   None    Shift=    0.000
 RMSDP=1.46D-02 MaxDP=8.13D-01 DE=-8.09D-02 OVMax= 9.79D-02

 Cycle   3  Pass 1  IDiag  1:
 RMSU=  5.56D-03    CP:  5.99D-01  1.63D+00
 E= -417.794605827483     Delta-E=       -0.068255196187 Rises=F Damp=F
 DIIS: error= 9.08D-03 at cycle   3 NSaved=   3.
 NSaved= 3 IEnMin= 3 EnMin= -417.794605827483     IErMin= 3 ErrMin= 9.08D-03
 ErrMax= 9.08D-03  0.00D+00 EMaxC= 1.00D-01 BMatC= 5.74D-03 BMatP= 2.02D-02
 IDIUse=3 WtCom= 9.09D-01 WtEn= 9.08D-02
 Coeff-Com: -0.161D+00 0.491D+00 0.670D+00
 Coeff-En:   0.000D+00 0.000D+00 0.100D+01
 Coeff:     -0.147D+00 0.446D+00 0.700D+00
 Gap=     0.236 Goal=   None    Shift=    0.000
 RMSDP=2.36D-03 MaxDP=1.70D-01 DE=-6.83D-02 OVMax= 5.16D-02

 Cycle   4  Pass 1  IDiag  1:
 RMSU=  1.82D-03    CP:  6.23D-01  1.61D+00  1.08D+00
 E= -417.799712710272     Delta-E=       -0.005106882789 Rises=F Damp=F
 DIIS: error= 4.15D-03 at cycle   4 NSaved=   4.
 NSaved= 4 IEnMin= 4 EnMin= -417.799712710272     IErMin= 4 ErrMin= 4.15D-03
 ErrMax= 4.15D-03  0.00D+00 EMaxC= 1.00D-01 BMatC= 1.30D-03 BMatP= 5.74D-03
 IDIUse=3 WtCom= 9.58D-01 WtEn= 4.15D-02
 Coeff-Com: -0.533D-01 0.128D+00 0.368D+00 0.557D+00
 Coeff-En:   0.000D+00 0.000D+00 0.169D+00 0.831D+00
 Coeff:     -0.511D-01 0.123D+00 0.359D+00 0.569D+00
 Gap=     0.238 Goal=   None    Shift=    0.000
 RMSDP=1.51D-03 MaxDP=1.19D-01 DE=-5.11D-03 OVMax= 1.80D-02

 Cycle   5  Pass 1  IDiag  1:
 RMSU=  5.54D-04    CP:  6.07D-01  1.58D+00  1.01D+00  4.94D-01
 E= -417.801200761940     Delta-E=       -0.001488051668 Rises=F Damp=F
 DIIS: error= 3.98D-04 at cycle   5 NSaved=   5.
 NSaved= 5 IEnMin= 5 EnMin= -417.801200761940     IErMin= 5 ErrMin= 3.98D-04
 ErrMax= 3.98D-04  0.00D+00 EMaxC= 1.00D-01 BMatC= 1.91D-05 BMatP= 1.30D-03
 IDIUse=3 WtCom= 9.96D-01 WtEn= 3.98D-03
 Coeff-Com: -0.869D-02 0.174D-01 0.759D-01 0.179D+00 0.737D+00
 Coeff-En:   0.000D+00 0.000D+00 0.000D+00 0.000D+00 0.100D+01
 Coeff:     -0.866D-02 0.173D-01 0.756D-01 0.178D+00 0.738D+00
 Gap=     0.238 Goal=   None    Shift=    0.000
 RMSDP=1.52D-04 MaxDP=9.13D-03 DE=-1.49D-03 OVMax= 2.08D-03

 Cycle   6  Pass 1  IDiag  1:
 RMSU=  4.98D-05    CP:  6.08D-01  1.59D+00  1.02D+00  5.34D-01  8.53D-01
 E= -417.801220474231     Delta-E=       -0.000019712291 Rises=F Damp=F
 DIIS: error= 1.26D-04 at cycle   6 NSaved=   6.
 NSaved= 6 IEnMin= 6 EnMin= -417.801220474231     IErMin= 6 ErrMin= 1.26D-04
 ErrMax= 1.26D-04  0.00D+00 EMaxC= 1.00D-01 BMatC= 2.49D-06 BMatP= 1.91D-05
 IDIUse=3 WtCom= 9.99D-01 WtEn= 1.26D-03
 Coeff-Com: -0.932D-03 0.714D-03 0.131D-01 0.481D-01 0.330D+00 0.609D+00
 Coeff-En:   0.000D+00 0.000D+00 0.000D+00 0.000D+00 0.000D+00 0.100D+01
 Coeff:     -0.931D-03 0.713D-03 0.131D-01 0.481D-01 0.330D+00 0.609D+00
 Gap=     0.238 Goal=   None    Shift=    0.000
 RMSDP=3.13D-05 MaxDP=1.94D-03 DE=-1.97D-05 OVMax= 6.72D-04

 Cycle   7  Pass 1  IDiag  1:
 RMSU=  2.20D-05    CP:  6.08D-01  1.59D+00  1.02D+00  5.38D-01  8.37D-01
                    CP:  9.92D-01
 E= -417.801223138198     Delta-E=       -0.000002663966 Rises=F Damp=F
 DIIS: error= 5.66D-05 at cycle   7 NSaved=   7.
 NSaved= 7 IEnMin= 7 EnMin= -417.801223138198     IErMin= 7 ErrMin= 5.66D-05
 ErrMax= 5.66D-05  0.00D+00 EMaxC= 1.00D-01 BMatC= 2.36D-07 BMatP= 2.49D-06
 IDIUse=1 WtCom= 1.00D+00 WtEn= 0.00D+00
 Coeff-Com:  0.138D-02-0.311D-02-0.100D-01-0.180D-01-0.258D-01 0.201D+00
 Coeff-Com:  0.855D+00
 Coeff:      0.138D-02-0.311D-02-0.100D-01-0.180D-01-0.258D-01 0.201D+00
 Coeff:      0.855D+00
 Gap=     0.238 Goal=   None    Shift=    0.000
 RMSDP=9.80D-06 MaxDP=2.82D-04 DE=-2.66D-06 OVMax= 3.76D-04

 Cycle   8  Pass 1  IDiag  1:
 RMSU=  6.32D-06    CP:  6.08D-01  1.59D+00  1.02D+00  5.37D-01  8.41D-01
                    CP:  1.12D+00  9.60D-01
 E= -417.801223557173     Delta-E=       -0.000000418975 Rises=F Damp=F
 DIIS: error= 2.11D-05 at cycle   8 NSaved=   8.
 NSaved= 8 IEnMin= 8 EnMin= -417.801223557173     IErMin= 8 ErrMin= 2.11D-05
 ErrMax= 2.11D-05  0.00D+00 EMaxC= 1.00D-01 BMatC= 5.97D-08 BMatP= 2.36D-07
 IDIUse=1 WtCom= 1.00D+00 WtEn= 0.00D+00
 Coeff-Com:  0.844D-03-0.179D-02-0.667D-02-0.143D-01-0.444D-01 0.428D-01
 Coeff-Com:  0.440D+00 0.583D+00
 Coeff:      0.844D-03-0.179D-02-0.667D-02-0.143D-01-0.444D-01 0.428D-01
 Coeff:      0.440D+00 0.583D+00
 Gap=     0.238 Goal=   None    Shift=    0.000
 RMSDP=8.12D-06 MaxDP=5.18D-04 DE=-4.19D-07 OVMax= 1.37D-04

 Cycle   9  Pass 1  IDiag  1:
 RMSU=  2.48D-06    CP:  6.08D-01  1.59D+00  1.02D+00  5.35D-01  8.49D-01
                    CP:  1.12D+00  9.85D-01  8.85D-01
 E= -417.801223637790     Delta-E=       -0.000000080617 Rises=F Damp=F
 DIIS: error= 7.29D-06 at cycle   9 NSaved=   9.
 NSaved= 9 IEnMin= 9 EnMin= -417.801223637790     IErMin= 9 ErrMin= 7.29D-06
 ErrMax= 7.29D-06  0.00D+00 EMaxC= 1.00D-01 BMatC= 3.10D-09 BMatP= 5.97D-08
 IDIUse=1 WtCom= 1.00D+00 WtEn= 0.00D+00
 Coeff-Com: -0.153D-03 0.348D-03 0.101D-02 0.135D-02-0.224D-03-0.320D-01
 Coeff-Com: -0.887D-01 0.968D-01 0.102D+01
 Coeff:     -0.153D-03 0.348D-03 0.101D-02 0.135D-02-0.224D-03-0.320D-01
 Coeff:     -0.887D-01 0.968D-01 0.102D+01
 Gap=     0.238 Goal=   None    Shift=    0.000
 RMSDP=1.89D-06 MaxDP=9.77D-05 DE=-8.06D-08 OVMax= 9.77D-05

 Cycle  10  Pass 1  IDiag  1:
 RMSU=  1.04D-06    CP:  6.08D-01  1.59D+00  1.02D+00  5.36D-01  8.47D-01
                    CP:  1.12D+00  9.92D-01  9.83D-01  1.09D+00
 E= -417.801223650068     Delta-E=       -0.000000012278 Rises=F Damp=F
 DIIS: error= 2.56D-06 at cycle  10 NSaved=  10.
 NSaved=10 IEnMin=10 EnMin= -417.801223650068     IErMin=10 ErrMin= 2.56D-06
 ErrMax= 2.56D-06  0.00D+00 EMaxC= 1.00D-01 BMatC= 5.89D-10 BMatP= 3.10D-09
 IDIUse=1 WtCom= 1.00D+00 WtEn= 0.00D+00
 Coeff-Com: -0.126D-03 0.281D-03 0.910D-03 0.158D-02 0.333D-02-0.165D-01
 Coeff-Com: -0.676D-01-0.619D-02 0.396D+00 0.688D+00
 Coeff:     -0.126D-03 0.281D-03 0.910D-03 0.158D-02 0.333D-02-0.165D-01
 Coeff:     -0.676D-01-0.619D-02 0.396D+00 0.688D+00
 Gap=     0.238 Goal=   None    Shift=    0.000
 RMSDP=6.89D-07 MaxDP=2.49D-05 DE=-1.23D-08 OVMax= 2.44D-05

 Cycle  11  Pass 1  IDiag  1:
 RMSU=  3.99D-07    CP:  6.08D-01  1.59D+00  1.02D+00  5.36D-01  8.47D-01
                    CP:  1.12D+00  9.94D-01  9.99D-01  1.15D+00  1.07D+00
 E= -417.801223651274     Delta-E=       -0.000000001207 Rises=F Damp=F
 DIIS: error= 1.42D-06 at cycle  11 NSaved=  11.
 NSaved=11 IEnMin=11 EnMin= -417.801223651274     IErMin=11 ErrMin= 1.42D-06
 ErrMax= 1.42D-06  0.00D+00 EMaxC= 1.00D-01 BMatC= 1.19D-10 BMatP= 5.89D-10
 IDIUse=1 WtCom= 1.00D+00 WtEn= 0.00D+00
 Coeff-Com: -0.186D-04 0.399D-04 0.167D-03 0.361D-03 0.153D-02-0.729D-03
 Coeff-Com: -0.113D-01-0.249D-01-0.618D-01 0.299D+00 0.798D+00
 Coeff:     -0.186D-04 0.399D-04 0.167D-03 0.361D-03 0.153D-02-0.729D-03
 Coeff:     -0.113D-01-0.249D-01-0.618D-01 0.299D+00 0.798D+00
 Gap=     0.238 Goal=   None    Shift=    0.000
 RMSDP=4.25D-07 MaxDP=2.08D-05 DE=-1.21D-09 OVMax= 1.58D-05

 Cycle  12  Pass 1  IDiag  1:
 RMSU=  1.22D-07    CP:  6.08D-01  1.59D+00  1.02D+00  5.36D-01  8.47D-01
                    CP:  1.11D+00  9.95D-01  1.01D+00  1.17D+00  1.16D+00
                    CP:  9.61D-01
 E= -417.801223651623     Delta-E=       -0.000000000348 Rises=F Damp=F
 DIIS: error= 4.40D-07 at cycle  12 NSaved=  12.
 NSaved=12 IEnMin=12 EnMin= -417.801223651623     IErMin=12 ErrMin= 4.40D-07
 ErrMax= 4.40D-07  0.00D+00 EMaxC= 1.00D-01 BMatC= 9.41D-12 BMatP= 1.19D-10
 IDIUse=1 WtCom= 1.00D+00 WtEn= 0.00D+00
 Coeff-Com:  0.171D-04-0.376D-04-0.117D-03-0.215D-03-0.338D-03 0.234D-02
 Coeff-Com:  0.964D-02 0.167D-02-0.602D-01-0.974D-01 0.851D-01 0.106D+01
 Coeff:      0.171D-04-0.376D-04-0.117D-03-0.215D-03-0.338D-03 0.234D-02
 Coeff:      0.964D-02 0.167D-02-0.602D-01-0.974D-01 0.851D-01 0.106D+01
 Gap=     0.238 Goal=   None    Shift=    0.000
 RMSDP=9.98D-08 MaxDP=3.02D-06 DE=-3.48D-10 OVMax= 5.55D-06

 Cycle  13  Pass 1  IDiag  1:
 RMSU=  5.90D-08    CP:  6.08D-01  1.59D+00  1.02D+00  5.36D-01  8.47D-01
                    CP:  1.11D+00  9.95D-01  1.01D+00  1.17D+00  1.20D+00
                    CP:  1.01D+00  1.23D+00
 E= -417.801223651663     Delta-E=       -0.000000000040 Rises=F Damp=F
 DIIS: error= 1.00D-07 at cycle  13 NSaved=  13.
 NSaved=13 IEnMin=13 EnMin= -417.801223651663     IErMin=13 ErrMin= 1.00D-07
 ErrMax= 1.00D-07  0.00D+00 EMaxC= 1.00D-01 BMatC= 3.04D-13 BMatP= 9.41D-12
 IDIUse=1 WtCom= 1.00D+00 WtEn= 0.00D+00
 Coeff-Com: -0.149D-05 0.310D-05 0.866D-05 0.726D-05-0.307D-04-0.288D-03
 Coeff-Com: -0.658D-03 0.115D-02 0.112D-01-0.684D-02-0.541D-01-0.184D+00
 Coeff-Com:  0.123D+01
 Coeff:     -0.149D-05 0.310D-05 0.866D-05 0.726D-05-0.307D-04-0.288D-03
 Coeff:     -0.658D-03 0.115D-02 0.112D-01-0.684D-02-0.541D-01-0.184D+00
 Coeff:      0.123D+01
 Gap=     0.238 Goal=   None    Shift=    0.000
 RMSDP=2.97D-08 MaxDP=1.47D-06 DE=-4.05D-11 OVMax= 1.61D-06

 Cycle  14  Pass 1  IDiag  1:
 RMSU=  1.21D-08    CP:  6.08D-01  1.59D+00  1.02D+00  5.36D-01  8.47D-01
                    CP:  1.11D+00  9.95D-01  1.01D+00  1.17D+00  1.20D+00
                    CP:  1.00D+00  1.27D+00  1.25D+00
 E= -417.801223651660     Delta-E=        0.000000000004 Rises=F Damp=F
 DIIS: error= 1.24D-08 at cycle  14 NSaved=  14.
 NSaved=14 IEnMin=13 EnMin= -417.801223651663     IErMin=14 ErrMin= 1.24D-08
 ErrMax= 1.24D-08  0.00D+00 EMaxC= 1.00D-01 BMatC= 1.43D-14 BMatP= 3.04D-13
 IDIUse=1 WtCom= 1.00D+00 WtEn= 0.00D+00
 Coeff-Com: -0.376D-06 0.851D-06 0.285D-05 0.354D-05 0.838D-05-0.604D-04
 Coeff-Com: -0.187D-03-0.273D-03 0.129D-02 0.415D-02 0.772D-03-0.274D-01
 Coeff-Com: -0.742D-01 0.110D+01
 Coeff:     -0.376D-06 0.851D-06 0.285D-05 0.354D-05 0.838D-05-0.604D-04
 Coeff:     -0.187D-03-0.273D-03 0.129D-02 0.415D-02 0.772D-03-0.274D-01
 Coeff:     -0.742D-01 0.110D+01
 Gap=     0.238 Goal=   None    Shift=    0.000
 RMSDP=4.57D-09 MaxDP=2.28D-07 DE= 3.64D-12 OVMax= 1.40D-07

 SCF Done:  E(RM062X) =  -417.801223652     A.U. after   14 cycles
            NFock= 14  Conv=0.46D-08     -V/T= 2.0084
 KE= 4.143389233392D+02 PE=-1.904392236456D+03 EE= 6.044461176192D+02
 Leave Link  502 at Tue Mar 25 12:08:18 2025, MaxMem=  8589934592 cpu:             525.1 elap:              33.1
 (Enter /apps/gaussian/g16-c01-avx/g16/l601.exe)
 Copying SCF densities to generalized density rwf, IOpCl= 0 IROHF=0.

 **********************************************************************

            Population analysis using the SCF Density.

 **********************************************************************

 Orbital symmetries:
       Occupied  (A) (A) (A) (A) (A) (A) (A) (A) (A) (A) (A) (A)
                 (A) (A) (A) (A) (A) (A) (A) (A) (A) (A) (A) (A)
                 (A) (A) (A) (A) (A) (A) (A) (A) (A) (A)
       Virtual   (A) (A) (A) (A) (A) (A) (A) (A) (A) (A) (A) (A)
                 (A) (A) (A) (A) (A) (A) (A) (A) (A) (A) (A) (A)
                 (A) (A) (A) (A) (A) (A) (A) (A) (A) (A) (A) (A)
                 (A) (A) (A) (A) (A) (A) (A) (A) (A) (A) (A) (A)
                 (A) (A) (A) (A) (A) (A) (A) (A) (A) (A) (A) (A)
                 (A) (A) (A) (A) (A) (A) (A) (A) (A) (A) (A) (A)
                 (A) (A) (A) (A) (A) (A) (A) (A) (A) (A) (A) (A)
                 (A) (A) (A) (A) (A) (A) (A) (A) (A) (A) (A) (A)
                 (A) (A) (A) (A) (A) (A) (A) (A) (A) (A) (A) (A)
                 (A) (A) (A) (A) (A) (A) (A) (A) (A) (A) (A) (A)
                 (A) (A) (A) (A) (A) (A) (A) (A) (A) (A) (A) (A)
                 (A) (A) (A) (A) (A) (A) (A) (A) (A) (A) (A) (A)
                 (A) (A) (A) (A) (A) (A) (A) (A) (A) (A) (A) (A)
                 (A) (A) (A) (A) (A) (A) (A) (A) (A) (A) (A) (A)
                 (A) (A) (A) (A) (A) (A) (A) (A) (A) (A) (A) (A)
                 (A) (A) (A) (A) (A) (A) (A) (A) (A) (A) (A)
 The electronic state is 1-A.
 Alpha  occ. eigenvalues --  -14.79047 -14.79045 -10.60572 -10.60489 -10.60039
 Alpha  occ. eigenvalues --  -10.59972 -10.57348 -10.57270 -10.56733 -10.56732
 Alpha  occ. eigenvalues --   -1.10114  -1.02195  -0.96953  -0.87625  -0.85596
 Alpha  occ. eigenvalues --   -0.77654  -0.73876  -0.70153  -0.62587  -0.62033
 Alpha  occ. eigenvalues --   -0.59347  -0.54913  -0.51810  -0.51809  -0.51051
 Alpha  occ. eigenvalues --   -0.49501  -0.43696  -0.43083  -0.42535  -0.40888
 Alpha  occ. eigenvalues --   -0.39023  -0.32320  -0.32312  -0.29651
 Alpha virt. eigenvalues --   -0.05833  -0.00151  -0.00125   0.00500   0.01437
 Alpha virt. eigenvalues --    0.02919   0.02924   0.03052   0.05169   0.05181
 Alpha virt. eigenvalues --    0.05959   0.07952   0.08034   0.08347   0.09987
 Alpha virt. eigenvalues --    0.10037   0.10311   0.11607   0.12706   0.12944
 Alpha virt. eigenvalues --    0.13031   0.13261   0.13341   0.13837   0.14948
 Alpha virt. eigenvalues --    0.15350   0.15445   0.15531   0.15754   0.17139
 Alpha virt. eigenvalues --    0.17898   0.18433   0.18889   0.20223   0.20707
 Alpha virt. eigenvalues --    0.22016   0.23352   0.23371   0.24746   0.25078
 Alpha virt. eigenvalues --    0.25402   0.25887   0.26892   0.27781   0.29368
 Alpha virt. eigenvalues --    0.29849   0.29969   0.30412   0.30614   0.31773
 Alpha virt. eigenvalues --    0.32508   0.32896   0.33942   0.34809   0.36408
 Alpha virt. eigenvalues --    0.37306   0.37848   0.40118   0.40434   0.43211
 Alpha virt. eigenvalues --    0.43397   0.43977   0.48040   0.57269   0.57612
 Alpha virt. eigenvalues --    0.65221   0.65410   0.67793   0.68211   0.71147
 Alpha virt. eigenvalues --    0.71627   0.74642   0.75963   0.76597   0.78306
 Alpha virt. eigenvalues --    0.78701   0.78921   0.79979   0.80692   0.84840
 Alpha virt. eigenvalues --    0.88975   0.92313   0.95127   0.97579   0.97694
 Alpha virt. eigenvalues --    0.99762   1.02130   1.02523   1.03197   1.03621
 Alpha virt. eigenvalues --    1.07966   1.08005   1.08160   1.11442   1.12344
 Alpha virt. eigenvalues --    1.14365   1.15331   1.16800   1.18329   1.19945
 Alpha virt. eigenvalues --    1.21270   1.22980   1.26158   1.26469   1.26772
 Alpha virt. eigenvalues --    1.28631   1.33254   1.35317   1.36304   1.38407
 Alpha virt. eigenvalues --    1.40367   1.42338   1.45347   1.45624   1.48314
 Alpha virt. eigenvalues --    1.48853   1.51232   1.53359   1.58662   1.62102
 Alpha virt. eigenvalues --    1.76533   1.82031   1.85893   1.88254   1.88782
 Alpha virt. eigenvalues --    1.90348   1.93490   1.96830   1.97176   1.98786
 Alpha virt. eigenvalues --    2.00585   2.03353   2.04649   2.05602   2.07079
 Alpha virt. eigenvalues --    2.08005   2.09874   2.18880   2.21353   2.22246
 Alpha virt. eigenvalues --    2.28824   2.30352   2.33651   2.33908   2.35252
 Alpha virt. eigenvalues --    2.36229   2.39873   2.42158   2.45498   2.47708
 Alpha virt. eigenvalues --    2.48043   2.49188   2.51775   2.56219   2.57110
 Alpha virt. eigenvalues --    2.59623   2.60055   2.61225   2.65251   2.66774
 Alpha virt. eigenvalues --    2.70638   2.71886   2.72205   2.73620   2.79205
 Alpha virt. eigenvalues --    2.79218   2.88282   2.90080   2.99820   3.04545
 Alpha virt. eigenvalues --    3.08463   3.11506   3.21439   3.26697   3.27132
 Alpha virt. eigenvalues --    3.32025   3.38854   3.40802   3.50114   3.74340
 Alpha virt. eigenvalues --    3.86223   4.13230   4.31493   4.34458   4.37343
 Alpha virt. eigenvalues --    4.43833   4.49545   4.54836   4.64540   4.70598
 Alpha virt. eigenvalues --    4.93978
          Condensed to atoms (all electrons):
               1          2          3          4          5          6
     1  C    5.895796   0.299755  -0.526976  -0.159080   0.008462   0.174675
     2  C    0.299755   5.895796  -0.069766   0.445066   0.157635  -0.219724
     3  C   -0.526976  -0.069766   7.339439   0.258258  -0.274735   0.066994
     4  C   -0.159080   0.445066   0.258258  12.636035   0.409959   0.522695
     5  N    0.008462   0.157635  -0.274735   0.409959   6.877987   0.035968
     6  C    0.174675  -0.219724   0.066994   0.522695   0.035968   6.153955
     7  C   -0.219724   0.174675  -0.066095  -0.604085   0.199635  -0.624797
     8  N    0.157635   0.008462  -0.060512  -0.060233  -0.007735   0.199636
     9  C    0.445075  -0.159077  -1.855979  -5.831408  -0.060232  -0.604083
    10  C   -0.069770  -0.526975   1.229862  -1.855960  -0.060512  -0.066095
    11  H    0.295532   0.022869  -0.015436   0.035809   0.000086   0.002985
    12  H    0.022870   0.295532  -0.030290   0.002906   0.002552  -0.003539
    13  H   -0.002940  -0.115678   0.315124   0.034683  -0.028068   0.004186
    14  H    0.002730  -0.009764   0.014258   0.059615  -0.117050   0.478641
    15  H   -0.009764   0.002730   0.003440  -0.051021   0.010849  -0.166550
    16  H   -0.115678  -0.002940   0.001659   0.062499  -0.002494  -0.001145
               7          8          9         10         11         12
     1  C   -0.219724   0.157635   0.445075  -0.069770   0.295532   0.022870
     2  C    0.174675   0.008462  -0.159077  -0.526975   0.022869   0.295532
     3  C   -0.066095  -0.060512  -1.855979   1.229862  -0.015436  -0.030290
     4  C   -0.604085  -0.060233  -5.831408  -1.855960   0.035809   0.002906
     5  N    0.199635  -0.007735  -0.060232  -0.060512   0.000086   0.002552
     6  C   -0.624797   0.199636  -0.604083  -0.066095   0.002985  -0.003539
     7  C    6.153956   0.035967   0.522695   0.066995  -0.003539   0.002985
     8  N    0.035967   6.877987   0.409961  -0.274736   0.002552   0.000086
     9  C    0.522695   0.409961  12.636059   0.258240   0.002906   0.035809
    10  C    0.066995  -0.274736   0.258240   7.339441  -0.030289  -0.015435
    11  H   -0.003539   0.002552   0.002906  -0.030289   0.549798  -0.003786
    12  H    0.002985   0.000086   0.035809  -0.015435  -0.003786   0.549798
    13  H   -0.001145  -0.002494   0.062500   0.001658  -0.002513  -0.008044
    14  H   -0.166549   0.010849  -0.051022   0.003440   0.000115  -0.000335
    15  H    0.478641  -0.117050   0.059614   0.014258  -0.000335   0.000115
    16  H    0.004186  -0.028068   0.034682   0.315124  -0.008044  -0.002513
              13         14         15         16
     1  C   -0.002940   0.002730  -0.009764  -0.115678
     2  C   -0.115678  -0.009764   0.002730  -0.002940
     3  C    0.315124   0.014258   0.003440   0.001659
     4  C    0.034683   0.059615  -0.051021   0.062499
     5  N   -0.028068  -0.117050   0.010849  -0.002494
     6  C    0.004186   0.478641  -0.166550  -0.001145
     7  C   -0.001145  -0.166549   0.478641   0.004186
     8  N   -0.002494   0.010849  -0.117050  -0.028068
     9  C    0.062500  -0.051022   0.059614   0.034682
    10  C    0.001658   0.003440   0.014258   0.315124
    11  H   -0.002513   0.000115  -0.000335  -0.008044
    12  H   -0.008044  -0.000335   0.000115  -0.002513
    13  H    0.544660   0.000799  -0.000162   0.001254
    14  H    0.000799   0.593287  -0.011076  -0.000162
    15  H   -0.000162  -0.011076   0.593287   0.000799
    16  H    0.001254  -0.000162   0.000799   0.544660
 Mulliken charges:
               1
     1  C   -0.198596
     2  C   -0.198596
     3  C   -0.329248
     4  C    0.094263
     5  N   -0.152308
     6  C    0.046198
     7  C    0.046200
     8  N   -0.152308
     9  C    0.094260
    10  C   -0.329248
    11  H    0.151287
    12  H    0.151287
    13  H    0.196180
    14  H    0.192225
    15  H    0.192225
    16  H    0.196180
 Sum of Mulliken charges =  -0.00000
 Mulliken charges with hydrogens summed into heavy atoms:
               1
     1  C   -0.047310
     2  C   -0.047309
     3  C   -0.133067
     4  C    0.094263
     5  N   -0.152308
     6  C    0.238423
     7  C    0.238424
     8  N   -0.152308
     9  C    0.094260
    10  C   -0.133067
 Electronic spatial extent (au):  <R**2>=           1206.3086
 Charge=             -0.0000 electrons
 Dipole moment (field-independent basis, Debye):
    X=             -0.5343    Y=              0.0000    Z=              0.0001  Tot=              0.5343
 Quadrupole moment (field-independent basis, Debye-Ang):
   XX=            -44.3999   YY=            -60.8077   ZZ=            -60.9798
   XY=             -0.0000   XZ=              0.0001   YZ=              0.0001
 Traceless Quadrupole moment (field-independent basis, Debye-Ang):
   XX=             10.9959   YY=             -5.4119   ZZ=             -5.5840
   XY=             -0.0000   XZ=              0.0001   YZ=              0.0001
 Octapole moment (field-independent basis, Debye-Ang**2):
  XXX=             13.1208  YYY=              0.0000  ZZZ=              0.0001  XYY=            -13.7004
  XXY=              0.0000  XXZ=              0.0006  XZZ=              4.1928  YZZ=              0.0000
  YYZ=              0.0006  XYZ=             -0.0001
 Hexadecapole moment (field-independent basis, Debye-Ang**3):
 XXXX=           -946.4835 YYYY=           -502.9576 ZZZZ=            -69.2573 XXXY=              0.0001
 XXXZ=              0.0022 YYYX=             -0.0001 YYYZ=              0.0004 ZZZX=              0.0001
 ZZZY=              0.0001 XXYY=           -249.7320 XXZZ=           -218.5863 YYZZ=           -101.0281
 XXYZ=              0.0006 YYXZ=             -0.0001 ZZXY=             -0.0000
 N-N= 4.678059718463D+02 E-N=-1.904392236376D+03  KE= 4.143389233392D+02
 No NMR shielding tensors so no spin-rotation constants.
 Leave Link  601 at Tue Mar 25 12:08:18 2025, MaxMem=  8589934592 cpu:               2.7 elap:               0.2
 (Enter /apps/gaussian/g16-c01-avx/g16/l701.exe)
 ... and contract with generalized density number  0.
 Compute integral first derivatives.
 Leave Link  701 at Tue Mar 25 12:08:19 2025, MaxMem=  8589934592 cpu:               2.2 elap:               0.2
 (Enter /apps/gaussian/g16-c01-avx/g16/l702.exe)
 L702 exits ... SP integral derivatives will be done elsewhere.
 Leave Link  702 at Tue Mar 25 12:08:19 2025, MaxMem=  8589934592 cpu:               0.2 elap:               0.0
 (Enter /apps/gaussian/g16-c01-avx/g16/l703.exe)
 Integral derivatives from FoFJK, PRISM(SPDF).
 Compute integral first derivatives, UseDBF=F ICtDFT=           0.
 Calling FoFJK, ICntrl=      2127 FMM=F ISym2X=0 I1Cent= 0 IOpClX= 0 NMat=1 NMatS=1 NMatT=0.
 FoFJK:  IHMeth= 1 ICntrl=    2127 DoSepK=F KAlg= 0 I1Cent=           0 FoldK=F
 IRaf=         0 NMat=       1 IRICut=       1 DoRegI=T DoRafI=F ISym2E= 0 IDoP0=0 IntGTp=1.
 FoFCou: FMM=F IPFlag=           0 FMFlag=      100000 FMFlg1=         800
         NFxFlg=           0 DoJE=F BraDBF=F KetDBF=F FulRan=T
         wScrn=  0.000000 ICntrl=      2127 IOpCl=  0 I1Cent=           0 NGrid=           0
         NMat0=    1 NMatS0=      1 NMatT0=    0 NMatD0=    1 NMtDS0=    0 NMtDT0=    0
 Symmetry not used in FoFCou.
 Leave Link  703 at Tue Mar 25 12:08:24 2025, MaxMem=  8589934592 cpu:              65.4 elap:               4.1
 (Enter /apps/gaussian/g16-c01-avx/g16/l716.exe)
 Dipole        =-2.10194693D-01 6.06480610D-07 3.43471405D-05
 ***** Axes restored to original set *****
 -------------------------------------------------------------------
 Center     Atomic                   Forces (Hartrees/Bohr)
 Number     Number              X              Y              Z
 -------------------------------------------------------------------
      1        6           0.016400145   -0.000000003   -0.026469209
      2        6           0.016400385    0.000002512    0.026468828
      3        6          -0.038089297   -0.000002708    0.012249816
      4        6           0.012257780   -0.000001076   -0.003007515
      5        7           0.033813654    0.000000077   -0.010756898
      6        6          -0.030326523    0.000003358    0.043283143
      7        6          -0.030326924    0.000001210   -0.043282902
      8        7           0.033813644   -0.000000251    0.010756810
      9        6           0.012257407    0.000000439    0.003007318
     10        6          -0.038088963    0.000001518   -0.012249887
     11        1           0.001771748   -0.000000759   -0.000112864
     12        1           0.001772063    0.000000209    0.000113357
     13        1           0.002459541   -0.000000268   -0.001197032
     14        1           0.001712741   -0.000001707    0.000253238
     15        1           0.001712718   -0.000001189   -0.000253226
     16        1           0.002459882   -0.000001362    0.001197022
 -------------------------------------------------------------------
 Cartesian Forces:  Max     0.043283143 RMS     0.016826997
 Leave Link  716 at Tue Mar 25 12:08:24 2025, MaxMem=  8589934592 cpu:               0.3 elap:               0.0
 (Enter /apps/gaussian/g16-c01-avx/g16/l103.exe)

 GradGradGradGradGradGradGradGradGradGradGradGradGradGradGradGradGradGrad
 Berny optimization.
 FormGI is forming the generalized inverse of G from B-inverse, IUseBI=4.
 Internal  Forces:  Max     0.031769424 RMS     0.008357993
 Search for a local minimum.
 Step number   1 out of a maximum of   89
 All quantities printed in internal units (Hartrees-Bohrs-Radians)
 RMS Force = .83580D-02 SwitMx=.10000D-02 MixMth= 1
 Mixed Optimization -- RFO/linear search
 Second derivative matrix not updated -- first step.
 ITU=  0
     Eigenvalues ---    0.02073   0.02122   0.02127   0.02171   0.02179
     Eigenvalues ---    0.02183   0.02189   0.02205   0.02211   0.02354
     Eigenvalues ---    0.02356   0.02356   0.02365   0.16000   0.16000
     Eigenvalues ---    0.16000   0.16000   0.16000   0.16000   0.22000
     Eigenvalues ---    0.22355   0.22574   0.24385   0.24483   0.25000
     Eigenvalues ---    0.35132   0.35132   0.35156   0.35156   0.35545
     Eigenvalues ---    0.35545   0.38256   0.42380   0.44965   0.46721
     Eigenvalues ---    0.46882   0.47403   0.47419   0.51107   0.53580
     Eigenvalues ---    0.55173   0.55193
 RFO step:  Lambda=-1.13980820D-02 EMin= 2.07316263D-02
 Linear search not attempted -- first point.
 Iteration  1 RMS(Cart)=  0.01833992 RMS(Int)=  0.00013617
 Iteration  2 RMS(Cart)=  0.00012522 RMS(Int)=  0.00007154
 Iteration  3 RMS(Cart)=  0.00000001 RMS(Int)=  0.00007154
 ITry= 1 IFail=0 DXMaxC= 5.05D-02 DCOld= 1.00D+10 DXMaxT= 3.00D-01 DXLimC= 3.00D+00 Rises=F
 Variable       Old X    -DE/DX   Delta X   Delta X   Delta X     New X
                                 (Linear)    (Quad)   (Total)
    R1        2.62451   0.02540   0.00000   0.05002   0.05016   2.67467
    R2        2.63776  -0.01639   0.00000  -0.03563  -0.03556   2.60220
    R3        2.05422  -0.00147   0.00000  -0.00405  -0.00405   2.05016
    R4        2.63776  -0.01639   0.00000  -0.03564  -0.03556   2.60220
    R5        2.05422  -0.00147   0.00000  -0.00405  -0.00405   2.05016
    R6        2.62634   0.02120   0.00000   0.04478   0.04471   2.67105
    R7        2.05460  -0.00119   0.00000  -0.00329  -0.00329   2.05132
    R8        2.54808   0.00623   0.00000   0.01218   0.01212   2.56020
    R9        2.68035   0.01266   0.00000   0.03416   0.03391   2.71427
   R10        2.55162  -0.03177   0.00000  -0.05782  -0.05776   2.49386
   R11        2.60717   0.02935   0.00000   0.05584   0.05594   2.66311
   R12        2.04798   0.00159   0.00000   0.00434   0.00434   2.05232
   R13        2.55162  -0.03177   0.00000  -0.05782  -0.05776   2.49386
   R14        2.04798   0.00159   0.00000   0.00434   0.00434   2.05232
   R15        2.54808   0.00623   0.00000   0.01218   0.01212   2.56020
   R16        2.62634   0.02120   0.00000   0.04478   0.04471   2.67105
   R17        2.05460  -0.00119   0.00000  -0.00329  -0.00329   2.05132
    A1        2.08687   0.00561   0.00000   0.01893   0.01911   2.10598
    A2        2.10094  -0.00178   0.00000  -0.00351  -0.00360   2.09734
    A3        2.09537  -0.00382   0.00000  -0.01542  -0.01551   2.07987
    A4        2.08687   0.00561   0.00000   0.01893   0.01911   2.10598
    A5        2.10093  -0.00178   0.00000  -0.00351  -0.00360   2.09734
    A6        2.09538  -0.00382   0.00000  -0.01542  -0.01551   2.07987
    A7        2.11917  -0.00598   0.00000  -0.02418  -0.02421   2.09496
    A8        2.08884   0.00552   0.00000   0.02685   0.02686   2.11570
    A9        2.07518   0.00046   0.00000  -0.00266  -0.00265   2.07253
   A10        2.08763   0.00095   0.00000  -0.00404  -0.00383   2.08380
   A11        2.07714   0.00038   0.00000   0.00525   0.00510   2.08225
   A12        2.11841  -0.00132   0.00000  -0.00121  -0.00127   2.11714
   A13        2.03033  -0.00285   0.00000  -0.00981  -0.00986   2.02047
   A14        2.13444   0.00417   0.00000   0.01102   0.01113   2.14557
   A15        2.02573  -0.00139   0.00000  -0.00143  -0.00149   2.02424
   A16        2.12302  -0.00278   0.00000  -0.00959  -0.00964   2.11337
   A17        2.13444   0.00417   0.00000   0.01102   0.01113   2.14557
   A18        2.12302  -0.00278   0.00000  -0.00959  -0.00965   2.11337
   A19        2.02573  -0.00139   0.00000  -0.00143  -0.00149   2.02424
   A20        2.03033  -0.00285   0.00000  -0.00981  -0.00986   2.02047
   A21        2.11841  -0.00132   0.00000  -0.00121  -0.00127   2.11714
   A22        2.07714   0.00038   0.00000   0.00525   0.00510   2.08224
   A23        2.08763   0.00095   0.00000  -0.00404  -0.00383   2.08380
   A24        2.11917  -0.00598   0.00000  -0.02418  -0.02421   2.09496
   A25        2.08883   0.00552   0.00000   0.02685   0.02686   2.11570
   A26        2.07518   0.00046   0.00000  -0.00267  -0.00265   2.07253
    D1        0.00003  -0.00000   0.00000  -0.00002  -0.00002   0.00001
    D2        3.14159   0.00000   0.00000   0.00001   0.00001  -3.14159
    D3       -3.14155  -0.00000   0.00000  -0.00003  -0.00003  -3.14158
    D4        0.00002  -0.00000   0.00000  -0.00001  -0.00001   0.00001
    D5        0.00002  -0.00000   0.00000  -0.00001  -0.00001   0.00000
    D6       -3.14156  -0.00000   0.00000  -0.00002  -0.00002  -3.14158
    D7        3.14159   0.00000   0.00000   0.00000   0.00000   3.14159
    D8        0.00001  -0.00000   0.00000  -0.00001  -0.00001   0.00001
    D9       -0.00005   0.00000   0.00000   0.00004   0.00004  -0.00001
   D10        3.14157   0.00000   0.00000   0.00002   0.00002   3.14159
   D11        3.14157   0.00000   0.00000   0.00002   0.00002   3.14158
   D12        0.00001  -0.00000   0.00000  -0.00001  -0.00001  -0.00000
   D13       -3.14156  -0.00000   0.00000  -0.00003  -0.00003  -3.14158
   D14        0.00004  -0.00000   0.00000  -0.00003  -0.00003   0.00001
   D15        0.00001   0.00000   0.00000  -0.00000  -0.00000   0.00000
   D16       -3.14158  -0.00000   0.00000  -0.00000  -0.00000  -3.14159
   D17       -3.14157  -0.00000   0.00000  -0.00002  -0.00002  -3.14159
   D18        0.00002  -0.00000   0.00000  -0.00001  -0.00001   0.00000
   D19        3.14157   0.00000   0.00000   0.00002   0.00002   3.14159
   D20        0.00000  -0.00000   0.00000  -0.00000  -0.00000  -0.00000
   D21       -0.00002   0.00000   0.00000   0.00002   0.00002  -0.00001
   D22       -3.14159  -0.00000   0.00000  -0.00001  -0.00001   3.14159
   D23       -0.00000  -0.00000   0.00000   0.00000   0.00000   0.00000
   D24        3.14155   0.00000   0.00000   0.00004   0.00004  -3.14159
   D25       -0.00002   0.00000   0.00000   0.00001   0.00001  -0.00000
   D26        3.14156   0.00000   0.00000   0.00004   0.00004  -3.14159
   D27       -3.14157  -0.00000   0.00000  -0.00003  -0.00003   3.14158
   D28        0.00000  -0.00000   0.00000  -0.00001  -0.00001  -0.00000
   D29        0.00001  -0.00000   0.00000  -0.00001  -0.00001   0.00000
   D30       -3.14156  -0.00000   0.00000  -0.00003  -0.00003   3.14159
   D31        0.00000  -0.00000   0.00000  -0.00000  -0.00000   0.00000
   D32        3.14157   0.00000   0.00000   0.00002   0.00002   3.14159
   D33       -0.00003   0.00000   0.00000   0.00002   0.00002  -0.00001
   D34        3.14154   0.00000   0.00000   0.00003   0.00003   3.14158
   D35        3.14159   0.00000   0.00000   0.00000   0.00000   3.14159
   D36       -0.00002   0.00000   0.00000   0.00001   0.00001  -0.00001
         Item               Value     Threshold  Converged?
 Maximum Force            0.031769     0.000450     NO 
 RMS     Force            0.008358     0.000300     NO 
 Maximum Displacement     0.050544     0.001800     NO 
 RMS     Displacement     0.018293     0.001200     NO 
 Predicted change in Energy=-5.844938D-03
 Lowest energy point so far.  Saving SCF results.
 GradGradGradGradGradGradGradGradGradGradGradGradGradGradGradGradGradGrad

 Leave Link  103 at Tue Mar 25 12:08:24 2025, MaxMem=  8589934592 cpu:               0.4 elap:               0.0
 (Enter /apps/gaussian/g16-c01-avx/g16/l202.exe)
                          Input orientation:                          
 ---------------------------------------------------------------------
 Center     Atomic      Atomic             Coordinates (Angstroms)
 Number     Number       Type             X           Y           Z
 ---------------------------------------------------------------------
      1          6           0        0.017677    0.000005   -0.013272
      2          6           0        0.017677    0.000009    1.402101
      3          6           0        1.202158   -0.000013    2.104381
      4          6           0        2.434744   -0.000056    1.412576
      5          7           0        3.592327   -0.000090    2.116485
      6          6           0        4.699963   -0.000126    1.399039
      7          6           0        4.699962   -0.000129   -0.010217
      8          7           0        3.592326   -0.000100   -0.727662
      9          6           0        2.434743   -0.000065   -0.023752
     10          6           0        1.202156   -0.000030   -0.715554
     11          1           0       -0.920274    0.000035   -0.558482
     12          1           0       -0.920273    0.000033    1.947311
     13          1           0        1.212707   -0.000003    3.189839
     14          1           0        5.630028   -0.000159    1.959810
     15          1           0        5.630027   -0.000160   -0.570989
     16          1           0        1.212702   -0.000021   -1.801013
 ---------------------------------------------------------------------
                    Distance matrix (angstroms):
                    1          2          3          4          5
     1  C    0.000000
     2  C    1.415374   0.000000
     3  C    2.426407   1.377023   0.000000
     4  C    2.806289   2.417089   1.413457   0.000000
     5  N    4.161009   3.645335   2.390200   1.354802   0.000000
     6  C    4.890647   4.682287   3.568213   2.265260   1.319692
     7  C    4.682287   4.890648   4.087317   2.674987   2.397857
     8  N    3.645335   4.161010   3.705856   2.433232   2.844147
     9  C    2.417089   2.806290   2.459312   1.436328   2.433232
    10  C    1.377023   2.426408   2.819935   2.459311   3.705856
    11  H    1.084899   2.173394   3.405225   3.891171   5.245858
    12  H    2.173393   1.084899   2.128236   3.397364   4.515771
    13  H    3.418775   2.150373   1.085510   2.156858   2.610494
    14  H    5.949079   5.639993   4.430230   3.241807   2.043715
    15  H    5.639993   5.949080   5.173357   3.760900   3.372646
    16  H    2.150372   3.418775   3.905408   3.438101   4.583602
                    6          7          8          9         10
     6  C    0.000000
     7  C    1.409257   0.000000
     8  N    2.397857   1.319692   0.000000
     9  C    2.674987   2.265260   1.354802   0.000000
    10  C    4.087317   3.568213   2.390200   1.413457   0.000000
    11  H    5.951383   5.646915   4.515770   3.397363   2.128235
    12  H    5.646916   5.951384   5.245859   3.891172   3.405225
    13  H    3.920194   4.733002   4.583601   3.438101   3.905408
    14  H    1.086041   2.178539   3.372646   3.760900   5.173357
    15  H    2.178539   1.086041   2.043715   3.241806   4.430230
    16  H    4.733004   3.920196   2.610496   2.156859   1.085510
                   11         12         13         14         15
    11  H    0.000000
    12  H    2.505793   0.000000
    13  H    4.312716   2.468498   0.000000
    14  H    7.017710   6.550314   4.585379   0.000000
    15  H    6.550313   7.017711   5.801426   2.530799   0.000000
    16  H    2.468495   4.312715   4.990852   5.801427   4.585381
                   16
    16  H    0.000000
 Stoichiometry    C8H6N2
 Framework group  C1[X(C8H6N2)]
 Deg. of freedom    42
 Full point group                 C1      NOp   1
 RotChk:  IX=0 Diff= 3.38D-06
 Largest Abelian subgroup         C1      NOp   1
 Largest concise Abelian subgroup C1      NOp   1
                         Standard orientation:                         
 ---------------------------------------------------------------------
 Center     Atomic      Atomic             Coordinates (Angstroms)
 Number     Number       Type             X           Y           Z
 ---------------------------------------------------------------------
      1          6           0       -2.370440    0.707687   -0.000003
      2          6           0       -2.370440   -0.707687   -0.000004
      3          6           0       -1.185960   -1.409967    0.000006
      4          6           0        0.046626   -0.718164    0.000002
      5          7           0        1.204209   -1.422074   -0.000001
      6          6           0        2.311845   -0.704629   -0.000002
      7          6           0        2.311846    0.704628    0.000001
      8          7           0        1.204210    1.422074    0.000000
      9          6           0        0.046626    0.718164   -0.000001
     10          6           0       -1.185960    1.409968    0.000000
     11          1           0       -3.308390    1.252897    0.000002
     12          1           0       -3.308392   -1.252896   -0.000010
     13          1           0       -1.175412   -2.495426    0.000011
     14          1           0        3.241910   -1.265400   -0.000010
     15          1           0        3.241911    1.265399   -0.000000
     16          1           0       -1.175413    2.495426    0.000014
 ---------------------------------------------------------------------
 Rotational constants (GHZ):           3.1664128           1.3176979           0.9304800
 Leave Link  202 at Tue Mar 25 12:08:24 2025, MaxMem=  8589934592 cpu:               0.1 elap:               0.0
 (Enter /apps/gaussian/g16-c01-avx/g16/l301.exe)
 Standard basis: 6-31++G(d,p) (6D, 7F)
 Ernie: Thresh=  0.10000D-02 Tol=  0.10000D-05 Strict=F.
 There are   226 symmetry adapted cartesian basis functions of A   symmetry.
 There are   226 symmetry adapted basis functions of A   symmetry.
   226 basis functions,   368 primitive gaussians,   226 cartesian basis functions
    34 alpha electrons       34 beta electrons
       nuclear repulsion energy       466.9037103627 Hartrees.
 IExCor= 4336 DFT=T Ex+Corr=M062X ExCW=0 ScaHFX=  0.540000
 ScaDFX=  1.000000  1.000000  1.000000  1.000000 ScalE2=  1.000000  1.000000
 IRadAn=      5 IRanWt=     -1 IRanGd=            0 ICorTp=0 IEmpDi=  4
 NAtoms=   16 NActive=   16 NUniq=   16 SFac= 1.00D+00 NAtFMM=   60 NAOKFM=F Big=F
 Integral buffers will be    131072 words long.
 Raffenetti 2 integral format.
 Two-electron integral symmetry is turned on.
 Leave Link  301 at Tue Mar 25 12:08:24 2025, MaxMem=  8589934592 cpu:               0.6 elap:               0.0
 (Enter /apps/gaussian/g16-c01-avx/g16/l302.exe)
 NPDir=0 NMtPBC=     1 NCelOv=     1 NCel=       1 NClECP=     1 NCelD=      1
         NCelK=      1 NCelE2=     1 NClLst=     1 CellRange=     0.0.
 One-electron integrals computed using PRISM.
 One-electron integral symmetry used in STVInt
 NBasis=   226 RedAO= T EigKep=  1.59D-06  NBF=   226
 NBsUse=   225 1.00D-06 EigRej=  4.54D-07 NBFU=   225
 Precomputing XC quadrature grid using
 IXCGrd= 4 IRadAn=           5 IRanWt=          -1 IRanGd=           0 AccXCQ= 0.00D+00.
 Generated NRdTot=       0 NPtTot=           0 NUsed=           0 NTot=          32
 NSgBfM=   226   226   226   226   226 MxSgAt=    16 MxSgA2=    16.
 Leave Link  302 at Tue Mar 25 12:08:24 2025, MaxMem=  8589934592 cpu:               2.7 elap:               0.2
 (Enter /apps/gaussian/g16-c01-avx/g16/l303.exe)
 DipDrv:  MaxL=1.
 Leave Link  303 at Tue Mar 25 12:08:24 2025, MaxMem=  8589934592 cpu:               0.4 elap:               0.0
 (Enter /apps/gaussian/g16-c01-avx/g16/l401.exe)
 Initial guess from the checkpoint file:  "entry_0_oxidised_neutral.chk"
 B after Tr=     0.000000    0.000000    0.000000
         Rot=    1.000000   -0.000000    0.000000   -0.000000 Ang=   0.00 deg.
 Guess basis will be translated and rotated to current coordinates.
 JPrj=2 DoOrth=T DoCkMO=T.
 Generating alternative initial guess.
 ExpMin= 3.60D-02 ExpMax= 4.17D+03 ExpMxC= 6.27D+02 IAcc=3 IRadAn=         5 AccDes= 0.00D+00
 Harris functional with IExCor= 1009 and IRadAn=       5 diagonalized for initial guess.
 HarFok:  IExCor= 1009 AccDes= 0.00D+00 IRadAn=         5 IDoV= 1 UseB2=F ITyADJ=14
 ICtDFT=  3500011 ScaDFX=  1.000000  1.000000  1.000000  1.000000
 FoFCou: FMM=F IPFlag=           0 FMFlag=      100000 FMFlg1=           0
         NFxFlg=           0 DoJE=T BraDBF=F KetDBF=T FulRan=T
         wScrn=  0.000000 ICntrl=       500 IOpCl=  0 I1Cent=   200000004 NGrid=           0
         NMat0=    1 NMatS0=      1 NMatT0=    0 NMatD0=    1 NMtDS0=    0 NMtDT0=    0
 Petite list used in FoFCou.
 Harris En= -417.563781442945    
 Leave Link  401 at Tue Mar 25 12:08:25 2025, MaxMem=  8589934592 cpu:              16.5 elap:               1.1
 (Enter /apps/gaussian/g16-c01-avx/g16/l502.exe)
 Integral symmetry usage will be decided dynamically.
 Closed shell SCF:
 Using DIIS extrapolation, IDIIS=  1040.
 NGot=  8589934592 LenX=  8589826170 LenY=  8589774653
 Requested convergence on RMS density matrix=1.00D-08 within 128 cycles.
 Requested convergence on MAX density matrix=1.00D-06.
 Requested convergence on             energy=1.00D-06.
 No special actions if energy rises.
 Fock matrices will be formed incrementally for  20 cycles.

 Cycle   1  Pass 1  IDiag  1:
 FoFJK:  IHMeth= 1 ICntrl=       0 DoSepK=F KAlg= 0 I1Cent=           0 FoldK=F
 IRaf= 950000000 NMat=       1 IRICut=       1 DoRegI=T DoRafI=F ISym2E= 0 IDoP0=0 IntGTp=1.
 FoFCou: FMM=F IPFlag=           0 FMFlag=      100000 FMFlg1=           0
         NFxFlg=           0 DoJE=F BraDBF=F KetDBF=F FulRan=T
         wScrn=  0.000000 ICntrl=         0 IOpCl=  0 I1Cent=           0 NGrid=           0
         NMat0=    1 NMatS0=      1 NMatT0=    0 NMatD0=    1 NMtDS0=    0 NMtDT0=    0
 Symmetry not used in FoFCou.
 E= -417.804577492966    
 DIIS: error= 2.85D-03 at cycle   1 NSaved=   1.
 NSaved= 1 IEnMin= 1 EnMin= -417.804577492966     IErMin= 1 ErrMin= 2.85D-03
 ErrMax= 2.85D-03  0.00D+00 EMaxC= 1.00D-01 BMatC= 2.27D-03 BMatP= 2.27D-03
 IDIUse=3 WtCom= 9.71D-01 WtEn= 2.85D-02
 Coeff-Com:  0.100D+01
 Coeff-En:   0.100D+01
 Coeff:      0.100D+01
 Gap=     0.499 Goal=   None    Shift=    0.000
 GapD=    0.499 DampG=2.000 DampE=1.000 DampFc=2.0000 IDamp=-1.
 RMSDP=3.74D-03 MaxDP=3.06D-01              OVMax= 1.49D-02

 Cycle   2  Pass 1  IDiag  1:
 RMSU=  2.55D-03    CP:  9.31D-01
 E= -417.807325329568     Delta-E=       -0.002747836602 Rises=F Damp=F
 DIIS: error= 1.41D-03 at cycle   2 NSaved=   2.
 NSaved= 2 IEnMin= 2 EnMin= -417.807325329568     IErMin= 2 ErrMin= 1.41D-03
 ErrMax= 1.41D-03  0.00D+00 EMaxC= 1.00D-01 BMatC= 3.80D-04 BMatP= 2.27D-03
 IDIUse=3 WtCom= 9.86D-01 WtEn= 1.41D-02
 Coeff-Com:  0.173D+00 0.827D+00
 Coeff-En:   0.000D+00 0.100D+01
 Coeff:      0.171D+00 0.829D+00
 Gap=     0.252 Goal=   None    Shift=    0.000
 RMSDP=7.11D-04 MaxDP=3.38D-02 DE=-2.75D-03 OVMax= 8.59D-03

 Cycle   3  Pass 1  IDiag  1:
 RMSU=  6.20D-04    CP:  9.34D-01  8.77D-01
 E= -417.807485020584     Delta-E=       -0.000159691016 Rises=F Damp=F
 DIIS: error= 1.23D-03 at cycle   3 NSaved=   3.
 NSaved= 3 IEnMin= 3 EnMin= -417.807485020584     IErMin= 3 ErrMin= 1.23D-03
 ErrMax= 1.23D-03  0.00D+00 EMaxC= 1.00D-01 BMatC= 2.54D-04 BMatP= 3.80D-04
 IDIUse=3 WtCom= 9.88D-01 WtEn= 1.23D-02
 Coeff-Com: -0.392D-01 0.451D+00 0.588D+00
 Coeff-En:   0.000D+00 0.345D+00 0.655D+00
 Coeff:     -0.387D-01 0.450D+00 0.589D+00
 Gap=     0.252 Goal=   None    Shift=    0.000
 RMSDP=3.54D-04 MaxDP=1.39D-02 DE=-1.60D-04 OVMax= 4.48D-03

 Cycle   4  Pass 1  IDiag  1:
 RMSU=  2.47D-04    CP:  9.33D-01  9.25D-01  6.53D-01
 E= -417.807711382845     Delta-E=       -0.000226362261 Rises=F Damp=F
 DIIS: error= 1.92D-04 at cycle   4 NSaved=   4.
 NSaved= 4 IEnMin= 4 EnMin= -417.807711382845     IErMin= 4 ErrMin= 1.92D-04
 ErrMax= 1.92D-04  0.00D+00 EMaxC= 1.00D-01 BMatC= 3.11D-06 BMatP= 2.54D-04
 IDIUse=3 WtCom= 9.98D-01 WtEn= 1.92D-03
 Coeff-Com: -0.120D-01 0.206D-01 0.104D+00 0.887D+00
 Coeff-En:   0.000D+00 0.000D+00 0.000D+00 0.100D+01
 Coeff:     -0.120D-01 0.206D-01 0.104D+00 0.888D+00
 Gap=     0.252 Goal=   None    Shift=    0.000
 RMSDP=6.95D-05 MaxDP=3.95D-03 DE=-2.26D-04 OVMax= 1.31D-03

 Cycle   5  Pass 1  IDiag  1:
 RMSU=  2.28D-05    CP:  9.34D-01  9.11D-01  7.33D-01  1.02D+00
 E= -417.807717088218     Delta-E=       -0.000005705374 Rises=F Damp=F
 DIIS: error= 6.91D-05 at cycle   5 NSaved=   5.
 NSaved= 5 IEnMin= 5 EnMin= -417.807717088218     IErMin= 5 ErrMin= 6.91D-05
 ErrMax= 6.91D-05  0.00D+00 EMaxC= 1.00D-01 BMatC= 5.58D-07 BMatP= 3.11D-06
 IDIUse=1 WtCom= 1.00D+00 WtEn= 0.00D+00
 Coeff-Com: -0.623D-03-0.321D-01-0.133D-01 0.311D+00 0.735D+00
 Coeff:     -0.623D-03-0.321D-01-0.133D-01 0.311D+00 0.735D+00
 Gap=     0.252 Goal=   None    Shift=    0.000
 RMSDP=1.09D-05 MaxDP=2.71D-04 DE=-5.71D-06 OVMax= 5.98D-04

 Cycle   6  Pass 1  IDiag  1:
 RMSU=  1.01D-05    CP:  9.34D-01  9.11D-01  7.36D-01  1.01D+00  8.74D-01
 E= -417.807718023348     Delta-E=       -0.000000935130 Rises=F Damp=F
 DIIS: error= 3.91D-05 at cycle   6 NSaved=   6.
 NSaved= 6 IEnMin= 6 EnMin= -417.807718023348     IErMin= 6 ErrMin= 3.91D-05
 ErrMax= 3.91D-05  0.00D+00 EMaxC= 1.00D-01 BMatC= 1.01D-07 BMatP= 5.58D-07
 IDIUse=1 WtCom= 1.00D+00 WtEn= 0.00D+00
 Coeff-Com:  0.201D-02-0.199D-01-0.280D-01-0.316D-01 0.301D+00 0.777D+00
 Coeff:      0.201D-02-0.199D-01-0.280D-01-0.316D-01 0.301D+00 0.777D+00
 Gap=     0.252 Goal=   None    Shift=    0.000
 RMSDP=8.15D-06 MaxDP=4.79D-04 DE=-9.35D-07 OVMax= 2.83D-04

 Cycle   7  Pass 1  IDiag  1:
 RMSU=  5.69D-06    CP:  9.34D-01  9.13D-01  7.34D-01  1.02D+00  8.37D-01
                    CP:  1.13D+00
 E= -417.807718206073     Delta-E=       -0.000000182725 Rises=F Damp=F
 DIIS: error= 9.22D-06 at cycle   7 NSaved=   7.
 NSaved= 7 IEnMin= 7 EnMin= -417.807718206073     IErMin= 7 ErrMin= 9.22D-06
 ErrMax= 9.22D-06  0.00D+00 EMaxC= 1.00D-01 BMatC= 7.49D-09 BMatP= 1.01D-07
 IDIUse=1 WtCom= 1.00D+00 WtEn= 0.00D+00
 Coeff-Com:  0.717D-03-0.312D-02-0.789D-02-0.350D-01 0.340D-01 0.245D+00
 Coeff-Com:  0.766D+00
 Coeff:      0.717D-03-0.312D-02-0.789D-02-0.350D-01 0.340D-01 0.245D+00
 Coeff:      0.766D+00
 Gap=     0.252 Goal=   None    Shift=    0.000
 RMSDP=3.61D-06 MaxDP=2.63D-04 DE=-1.83D-07 OVMax= 1.03D-04

 Cycle   8  Pass 1  IDiag  1:
 RMSU=  1.53D-06    CP:  9.33D-01  9.13D-01  7.33D-01  1.01D+00  8.32D-01
                    CP:  1.24D+00  1.05D+00
 E= -417.807718217076     Delta-E=       -0.000000011003 Rises=F Damp=F
 DIIS: error= 5.94D-06 at cycle   8 NSaved=   8.
 NSaved= 8 IEnMin= 8 EnMin= -417.807718217076     IErMin= 8 ErrMin= 5.94D-06
 ErrMax= 5.94D-06  0.00D+00 EMaxC= 1.00D-01 BMatC= 3.16D-09 BMatP= 7.49D-09
 IDIUse=1 WtCom= 1.00D+00 WtEn= 0.00D+00
 Coeff-Com:  0.356D-04 0.176D-02 0.245D-03-0.147D-01-0.325D-01-0.307D-02
 Coeff-Com:  0.429D+00 0.619D+00
 Coeff:      0.356D-04 0.176D-02 0.245D-03-0.147D-01-0.325D-01-0.307D-02
 Coeff:      0.429D+00 0.619D+00
 Gap=     0.252 Goal=   None    Shift=    0.000
 RMSDP=9.65D-07 MaxDP=3.45D-05 DE=-1.10D-08 OVMax= 2.98D-05

 Cycle   9  Pass 1  IDiag  1:
 RMSU=  5.46D-07    CP:  9.33D-01  9.13D-01  7.33D-01  1.01D+00  8.40D-01
                    CP:  1.26D+00  1.06D+00  7.47D-01
 E= -417.807718220827     Delta-E=       -0.000000003750 Rises=F Damp=F
 DIIS: error= 5.31D-07 at cycle   9 NSaved=   9.
 NSaved= 9 IEnMin= 9 EnMin= -417.807718220827     IErMin= 9 ErrMin= 5.31D-07
 ErrMax= 5.31D-07  0.00D+00 EMaxC= 1.00D-01 BMatC= 6.25D-11 BMatP= 3.16D-09
 IDIUse=1 WtCom= 1.00D+00 WtEn= 0.00D+00
 Coeff-Com: -0.274D-04 0.751D-03 0.493D-03-0.236D-02-0.117D-01-0.173D-01
 Coeff-Com:  0.928D-01 0.182D+00 0.756D+00
 Coeff:     -0.274D-04 0.751D-03 0.493D-03-0.236D-02-0.117D-01-0.173D-01
 Coeff:      0.928D-01 0.182D+00 0.756D+00
 Gap=     0.252 Goal=   None    Shift=    0.000
 RMSDP=4.53D-07 MaxDP=3.73D-05 DE=-3.75D-09 OVMax= 5.51D-06

 Cycle  10  Pass 1  IDiag  1:
 RMSU=  1.41D-07    CP:  9.33D-01  9.13D-01  7.33D-01  1.01D+00  8.38D-01
                    CP:  1.26D+00  1.08D+00  7.69D-01  9.90D-01
 E= -417.807718220921     Delta-E=       -0.000000000094 Rises=F Damp=F
 DIIS: error= 3.35D-07 at cycle  10 NSaved=  10.
 NSaved=10 IEnMin=10 EnMin= -417.807718220921     IErMin=10 ErrMin= 3.35D-07
 ErrMax= 3.35D-07  0.00D+00 EMaxC= 1.00D-01 BMatC= 1.12D-11 BMatP= 6.25D-11
 IDIUse=1 WtCom= 1.00D+00 WtEn= 0.00D+00
 Coeff-Com: -0.118D-04 0.583D-04 0.112D-03 0.821D-03-0.143D-03-0.609D-02
 Coeff-Com: -0.139D-01-0.115D-01 0.273D+00 0.757D+00
 Coeff:     -0.118D-04 0.583D-04 0.112D-03 0.821D-03-0.143D-03-0.609D-02
 Coeff:     -0.139D-01-0.115D-01 0.273D+00 0.757D+00
 Gap=     0.252 Goal=   None    Shift=    0.000
 RMSDP=6.08D-08 MaxDP=2.62D-06 DE=-9.41D-11 OVMax= 3.53D-06

 Cycle  11  Pass 1  IDiag  1:
 RMSU=  4.21D-08    CP:  9.33D-01  9.13D-01  7.33D-01  1.01D+00  8.38D-01
                    CP:  1.26D+00  1.08D+00  7.76D-01  1.04D+00  9.79D-01
 E= -417.807718220938     Delta-E=       -0.000000000017 Rises=F Damp=F
 DIIS: error= 2.69D-07 at cycle  11 NSaved=  11.
 NSaved=11 IEnMin=11 EnMin= -417.807718220938     IErMin=11 ErrMin= 2.69D-07
 ErrMax= 2.69D-07  0.00D+00 EMaxC= 1.00D-01 BMatC= 2.49D-12 BMatP= 1.12D-11
 IDIUse=1 WtCom= 1.00D+00 WtEn= 0.00D+00
 Coeff-Com: -0.142D-05-0.789D-04-0.281D-04 0.693D-03 0.167D-02-0.619D-03
 Coeff-Com: -0.191D-01-0.332D-01 0.227D-01 0.353D+00 0.675D+00
 Coeff:     -0.142D-05-0.789D-04-0.281D-04 0.693D-03 0.167D-02-0.619D-03
 Coeff:     -0.191D-01-0.332D-01 0.227D-01 0.353D+00 0.675D+00
 Gap=     0.252 Goal=   None    Shift=    0.000
 RMSDP=6.82D-08 MaxDP=4.61D-06 DE=-1.73D-11 OVMax= 1.68D-06

 Cycle  12  Pass 1  IDiag  1:
 RMSU=  2.46D-08    CP:  9.33D-01  9.13D-01  7.33D-01  1.01D+00  8.39D-01
                    CP:  1.26D+00  1.07D+00  7.79D-01  1.07D+00  9.93D-01
                    CP:  1.15D+00
 E= -417.807718220950     Delta-E=       -0.000000000012 Rises=F Damp=F
 DIIS: error= 8.51D-08 at cycle  12 NSaved=  12.
 NSaved=12 IEnMin=12 EnMin= -417.807718220950     IErMin=12 ErrMin= 8.51D-08
 ErrMax= 8.51D-08  0.00D+00 EMaxC= 1.00D-01 BMatC= 2.72D-13 BMatP= 2.49D-12
 IDIUse=1 WtCom= 1.00D+00 WtEn= 0.00D+00
 Coeff-Com:  0.261D-05-0.359D-04-0.401D-04 0.384D-05 0.586D-03 0.124D-02
 Coeff-Com: -0.131D-02-0.769D-02-0.590D-01-0.827D-01 0.179D+00 0.970D+00
 Coeff:      0.261D-05-0.359D-04-0.401D-04 0.384D-05 0.586D-03 0.124D-02
 Coeff:     -0.131D-02-0.769D-02-0.590D-01-0.827D-01 0.179D+00 0.970D+00
 Gap=     0.252 Goal=   None    Shift=    0.000
 RMSDP=1.42D-08 MaxDP=5.53D-07 DE=-1.19D-11 OVMax= 1.09D-06

 Cycle  13  Pass 1  IDiag  1:
 RMSU=  8.20D-09    CP:  9.33D-01  9.13D-01  7.33D-01  1.01D+00  8.39D-01
                    CP:  1.26D+00  1.07D+00  7.77D-01  1.07D+00  1.03D+00
                    CP:  1.31D+00  1.07D+00
 E= -417.807718220947     Delta-E=        0.000000000003 Rises=F Damp=F
 DIIS: error= 2.71D-08 at cycle  13 NSaved=  13.
 NSaved=13 IEnMin=12 EnMin= -417.807718220950     IErMin=13 ErrMin= 2.71D-08
 ErrMax= 2.71D-08  0.00D+00 EMaxC= 1.00D-01 BMatC= 1.31D-14 BMatP= 2.72D-13
 IDIUse=1 WtCom= 1.00D+00 WtEn= 0.00D+00
 Coeff-Com: -0.899D-07 0.118D-04 0.596D-05-0.822D-04-0.218D-03-0.587D-04
 Coeff-Com:  0.217D-02 0.374D-02 0.338D-02-0.279D-01-0.101D+00-0.914D-01
 Coeff-Com:  0.121D+01
[...]
   xx         0.153126D+03      0.226909D+02      0.252470D+02
   yx        -0.299734D-02     -0.444160D-03     -0.494195D-03
   yy         0.531153D+02      0.787088D+01      0.875754D+01
   zx        -0.355521D-04     -0.526828D-05     -0.586175D-05
   zy         0.160177D-03      0.237358D-04      0.264096D-04
   zz         0.104369D+03      0.154658D+02      0.172080D+02

 ----------------------------------------------------------------------

 Dipole orientation:
     6         -0.02983397          0.00002043         -0.02648250
     6          2.65433913         -0.00007243         -0.02648248
     6          3.97533163         -0.00010149         -2.25720389
     6          2.65501034         -0.00003652         -4.59117559
     7          3.98869852         -0.00006658         -6.79515101
     6          2.65859159         -0.00000396         -8.88047087
     6         -0.03408624          0.00008926         -8.88047088
     7         -1.36419319          0.00011909         -6.79515104
     6         -0.03050503          0.00005683         -4.59117561
     6         -1.35082639          0.00008324         -2.25720395
     1         -1.03485434          0.00004117          1.76122263
     1          3.65935954         -0.00012066          1.76122263
     1          6.02507963         -0.00017281         -2.31664338
     1          3.68300750         -0.00001954        -10.66221888
     1         -1.05850213          0.00014439        -10.66221891
     1         -3.40057439          0.00015375         -2.31664358

 Electric dipole moment (dipole orientation):
 (Debye = 10**-18 statcoulomb cm , SI units = C m)
                  (au)            (Debye)         (10**-30 SI)
   Tot        0.176999D+00      0.449887D+00      0.150066D+01
   x          0.000000D+00      0.000000D+00      0.000000D+00
   y          0.000000D+00      0.000000D+00      0.000000D+00
   z          0.176999D+00      0.449887D+00      0.150066D+01

 Dipole polarizability, Alpha (dipole orientation).
 (esu units = cm**3 , SI units = C**2 m**2 J**-1)
 Alpha(0;0):
               (au)            (10**-24 esu)      (10**-40 SI)
   iso        0.103536D+03      0.153425D+02      0.170709D+02
   aniso      0.866204D+02      0.128358D+02      0.142818D+02
   xx         0.104369D+03      0.154658D+02      0.172080D+02
   yx        -0.177661D-02     -0.263266D-03     -0.292923D-03
   yy         0.531153D+02      0.787088D+01      0.875754D+01
   zx         0.000000D+00      0.000000D+00      0.000000D+00
   zy        -0.781897D-03     -0.115865D-03     -0.128917D-03
   zz         0.153126D+03      0.226909D+02      0.252470D+02

 ----------------------------------------------------------------------
 Unable to Open any file for archive entry.
 1\1\GINC-CX3-3-9\Freq\RM062X\6-31++G(d,p)\C8H6N2\DMD216\25-Mar-2025\0\
 \#P Geom=AllCheck Guess=TCheck SCRF=Check GenChk RM062X/6-31++G(d,p) F
 req\\Generated Gaussian Input\\0,1\C,0.0140139249,0.0000096844,-0.0157
 874691\C,0.0140149601,0.0000142219,1.404615767\C,1.1944624072,-0.00001
 93497,2.103654027\C,2.4295465291,-0.0000580432,1.4049691761\N,3.595840
 6137,-0.0000913548,2.1107257091\C,4.6993438382,-0.0001265154,1.4068626
 213\C,4.6993427971,-0.0001310268,-0.0180411227\N,3.5958385438,-0.00010
 01398,-0.7219025976\C,2.4295454896,-0.0000623464,-0.0161443558\C,1.194
 4603623,-0.0000280995,-0.7148274241\H,-0.9319992825,0.0000363097,-0.54
 76206453\H,-0.9319974519,0.0000445418,1.936450361\H,1.2259172283,-0.00
 0017291,3.1883339327\H,5.6422046818,-0.0001499032,1.9489594842\H,5.642
 2028515,-0.0001579684,-0.5601393582\H,1.2259136653,-0.0000329649,-1.79
 95073746\\Version=ES64L-G16RevC.01\State=1-A\HF=-417.8084701\RMSD=3.14
 4e-09\RMSF=1.851e-04\ZeroPoint=0.1248353\Thermal=0.131362\ETot=-417.67
 71082\HTot=-417.676164\GTot=-417.7147021\Dipole=-0.1769992,0.0000067,0
 .0000001\DipoleDeriv=-0.0233939,-0.0000028,0.1192749,-0.0000026,-0.133
 4379,-0.000003,0.1958397,-0.0000055,0.0396513,-0.0233943,-0.0000037,-0
 .1192748,-0.0000042,-0.1334379,0.0000042,-0.1958396,0.0000066,0.039651
 8,-0.0087626,-0.0000043,-0.0105606,-0.000004,-0.1470044,0.0000011,-0.0
 141231,0.0000011,0.1042674,0.0882864,0.000002,0.0630209,0.,0.1393437,-
 0.0000026,-0.4245213,0.0000123,-0.0522908,-0.0525119,-0.0000081,-0.027
 4414,-0.0000071,-0.2889734,0.0000006,0.0402139,-0.0000011,-0.3409856,0
 .0552776,0.0000008,0.1090222,0.0000026,0.0429973,-0.0000023,0.5585047,
 -0.0000164,0.2043466,0.0552767,0.,-0.109022,-0.000001,0.0429973,0.0000
 033,-0.5585045,0.0000175,0.2043475,-0.052512,-0.0000079,0.027441,-0.00
 00072,-0.2889734,-0.0000009,-0.0402143,0.0000008,-0.3409856,0.0882869,
 0.0000016,-0.0630211,0.0000027,0.1393437,0.0000013,0.4245211,-0.000013
 5,-0.0522913,-0.0087626,-0.0000042,0.0105607,-0.000004,-0.1470044,0.00
 00006,0.0141232,0.0000005,0.1042674,-0.0465337,0.0000054,-0.0674196,0.
 0000054,0.1413056,0.0000017,-0.065676,0.0000016,0.0324209,-0.0465335,0
 .0000059,0.0674197,0.0000059,0.1413056,-0.0000024,0.0656762,-0.0000023
 ,0.0324207,0.0686199,0.0000021,-0.022381,0.0000022,0.1417365,0.0000001
 ,0.025062,-0.0000012,-0.029067,-0.0809816,0.0000053,-0.0507309,0.00000
 44,0.1040327,0.000001,-0.0684629,0.0000019,0.0416569,-0.0809814,0.0000
 056,0.0507311,0.0000048,0.1040327,-0.0000014,0.0684631,-0.0000023,0.04
 16567,0.0686199,0.0000023,0.0223808,0.000002,0.1417365,-0.0000013,-0.0
 250621,0.0000002,-0.029067\Polar=153.1255599,-0.0029973,53.1153307,-0.
 0000356,0.0001602,104.3685249\Quadrupole=7.8662186,-4.1021365,-3.76408
 21,-0.0003479,-0.0000086,0.0000019\PG=C01 [X(C8H6N2)]\NImag=0\\0.78294
 890,-0.00001941,0.13620329,0.00283150,0.00000166,0.66536119,-0.1285840
 0,0.00000210,0.03569611,0.78294886,0.00000188,-0.06214710,-0.00000183,
 -0.00001956,0.13620329,-0.03569636,0.00000030,-0.29948129,-0.00283168,
 0.00000173,0.66536121,0.03666357,-0.00000115,-0.07678824,-0.34410313,0
 .00000830,-0.08883540,0.70525956,-0.00000100,0.00600996,0.00000219,0.0
 0000809,-0.06075065,0.00000228,-0.00001695,0.13427578,-0.02881799,0.00
 000077,-0.02718244,-0.15547909,0.00000427,-0.20649314,0.05960880,-0.00
 000005,0.76642893,-0.02428011,0.00000069,0.04197829,-0.06067739,0.0000
 0181,-0.04255603,-0.21854064,0.00000488,0.11535070,0.72001179,0.000000
 60,-0.00565886,-0.00000133,0.00000197,0.00408933,0.00000138,0.00000478
 ,-0.06495156,-0.00000376,-0.00001676,0.16392652,0.01619123,-0.00000057
 ,-0.02963097,0.00425743,0.,0.04372829,0.07947011,-0.00000269,-0.184097
 23,-0.01817668,0.00000197,0.67044143,0.01358110,-0.00000052,-0.0251052
 0,0.01499803,-0.00000013,0.03564634,-0.09025142,0.00000258,-0.01487087
 ,-0.22095992,0.00000453,-0.09935425,0.69983195,-0.00000044,-0.00132659
 ,0.00000074,-0.00000021,0.00711598,-0.00000107,0.00000260,-0.00346920,
 0.00000052,0.00000455,-0.06379774,0.00000265,-0.00001861,0.08855765,0.
 00165270,-0.00000005,-0.00145074,0.00476273,-0.00000017,0.00090581,0.0
 0638490,-0.00000012,0.01837124,-0.10002981,0.00000265,-0.18702574,-0.0
 7206320,0.00000322,0.44049828,-0.00748174,0.00000029,0.01206690,-0.009
 17503,0.00000020,-0.01431068,0.01944367,-0.00000031,-0.00879036,-0.101
 25142,0.00000301,-0.00514661,-0.35587746,0.00000938,0.16210853,0.82108
 547,0.00000029,0.00096463,-0.00000042,0.00000028,-0.00088753,0.0000005
 0,-0.00000038,0.00989804,0.00000024,0.00000314,0.00057849,0.00000033,0
 .00000916,-0.05851703,-0.00000541,-0.00001920,0.14802138,0.01209150,-0
 .00000044,-0.02225422,0.01385659,-0.00000034,0.02275764,-0.03186655,0.
 00000094,0.00300073,0.04219956,-0.00000106,0.04977977,0.12487401,-0.00
 000438,-0.22809214,0.01096412,0.00000172,0.65982064,-0.00917503,0.0000
 0029,0.01431073,-0.00748178,0.00000021,-0.01206692,0.01113342,-0.00000
 035,-0.00378715,-0.02368664,0.00000024,-0.02286130,0.03882265,-0.00000
 010,0.03786051,-0.14150380,0.00000187,0.04379979,0.82108544,0.00000019
 ,-0.00088753,-0.00000035,0.00000021,0.00096463,0.00000027,-0.00000024,
 -0.00024576,0.00000010,0.00000012,-0.01380412,0.00000058,0.00000015,0.
 03072156,-0.00000130,0.00000159,-0.07963027,-0.00000180,-0.00001934,0.
 14802138,-0.01385655,0.00000049,0.02275764,-0.01209152,0.00000029,-0.0
 2225418,0.02603498,-0.00000078,-0.00387542,-0.05183384,0.00000143,-0.0
 4560848,0.11028908,-0.00000343,-0.03038357,-0.04379996,0.00000064,-0.2
 5979784,-0.01096436,0.00000151,0.65982068,0.01499797,-0.00000036,-0.03
 564636,0.01358113,-0.00000037,0.02510518,-0.02250280,0.00000084,0.0038
 5758,0.04551185,-0.00000055,0.07255217,-0.09225475,0.00000219,0.002192
 68,0.03882243,-0.00000053,-0.11028918,-0.35587788,0.00000842,-0.124873
 82,0.69983215,-0.00000024,0.00711598,0.00000103,-0.00000045,-0.0013265
 9,-0.00000074,0.00000082,0.00548801,-0.00000015,-0.00000065,0.01873588
 ,-0.00000228,0.00000218,-0.01765635,0.00000003,-0.00000034,0.03072156,
 0.00000306,0.00000840,-0.05851703,0.00000334,-0.00001821,0.08855765,-0
 .00476275,0.00000013,0.00090587,-0.00165272,0.00000005,-0.00145078,-0.
 00262385,0.00000003,-0.00792406,0.03682475,-0.00000122,-0.01958577,-0.
 00219254,0.00000012,0.00699883,-0.03786062,0.00000092,-0.03038335,-0.1
 6210834,0.00000437,-0.22809172,0.07206282,-0.00000104,0.44049807,-0.06
 067734,0.00000208,0.04255619,-0.02428020,0.00000042,-0.04197830,0.0453
 7836,-0.00000114,0.02531714,-0.15777296,0.00000241,-0.00655826,0.04551
 169,-0.00000088,-0.03682485,-0.02368654,0.00000044,0.05183381,-0.10125
 147,0.00000289,-0.04219934,-0.22095962,0.00000518,0.10002986,0.7200118
 3,0.00000194,0.00408933,-0.00000113,0.00000050,-0.00565886,0.00000118,
 -0.00000107,0.00492830,-0.00000082,0.00000245,-0.07650689,-0.00000040,
 -0.00000100,0.01873588,0.00000098,0.00000038,-0.01380412,-0.00000163,0
 .00000305,0.00057848,0.00000137,0.00000516,-0.06379774,-0.00000342,-0.
 00001664,0.16392653,-0.00425728,0.00000026,0.04372824,-0.01619124,0.00
 000042,-0.02963089,0.04635692,-0.00000146,-0.01541140,0.00655810,-0.00
 000074,-0.26781677,-0.07255226,0.00000204,-0.01958561,0.02286126,-0.00
 000078,-0.04560859,0.00514683,-0.00000002,0.04977982,0.09935429,-0.000
 00343,-0.18702603,0.01817662,0.00000115,0.67044138,-0.34410279,0.00000
 881,0.08883560,0.03666372,-0.00000068,0.07678815,-0.06648427,0.0000019
 5,-0.00127535,0.04537825,-0.00000136,-0.04635701,-0.02250280,0.0000008
 3,0.00262387,0.01113339,-0.00000041,-0.02603500,0.01944372,-0.00000018
 ,0.03186653,-0.09025141,0.00000256,-0.00638475,-0.21854093,0.00000428,
 -0.07947006,0.70525940,0.00000902,-0.06075065,-0.00000317,-0.00000082,
 0.00600996,-0.00000241,0.00000196,-0.00122954,0.00000004,-0.00000129,0
 .00492830,0.00000133,0.00000082,0.00548801,-0.00000011,-0.00000033,-0.
 00024576,0.00000076,-0.00000026,0.00989804,-0.00000099,0.00000267,-0.0
 0346920,0.00000025,0.00000414,-0.06495156,0.00000193,-0.00001725,0.134
 27577,0.15547930,-0.00000516,-0.20649350,0.02881790,-0.00000098,-0.027
 18259,0.00127545,-0.00000004,-0.00112911,-0.02531723,0.00000069,-0.015
 41129,-0.00385756,0.00000007,-0.00792405,0.00378713,-0.00000012,-0.003
 87539,0.00879034,-0.00000028,0.00300067,0.01487103,-0.00000038,0.01837
 123,-0.11535065,0.00000301,-0.18409695,-0.05960873,0.00000404,0.766429
 10,-0.27844145,0.00000677,-0.12331140,0.00422007,-0.00000002,0.0025783
 3,0.00152043,0.00000012,0.00060000,-0.00009445,0.,0.00074269,0.0001816
 7,-0.00000003,-0.00023461,-0.00001535,0.,0.00031038,-0.00046688,-0.000
 00001,0.00003370,-0.00109388,0.00000005,-0.00077631,-0.00175726,0.0000
 0035,0.00396817,-0.01834251,0.00000063,-0.01580056,0.29291472,0.000006
 78,-0.03914798,0.00000338,-0.00000012,0.00313837,-0.00000011,0.0000001
 1,0.00532388,-0.00000006,0.,-0.00039445,-0.00000003,-0.00000004,-0.000
 86590,0.,0.,0.00004248,-0.00000001,-0.00000001,-0.00095558,0.,0.000000
 04,0.00061760,0.00000003,0.00000035,0.00934635,-0.00000015,0.00000072,
 0.00459625,0.00000050,-0.00000756,0.02628554,-0.12383441,0.00000341,-0
 .12890681,-0.02835118,0.00000081,-0.00940839,0.00125265,-0.00000007,-0
 .00592410,0.00147035,-0.00000004,-0.00060396,-0.00062404,0.00000002,0.
 00015774,0.00022513,0.,-0.00029360,0.00032487,0.,0.00024196,0.00056880
 ,-0.00000002,0.00051119,0.00286539,-0.00000012,-0.00157535,0.01553543,
 -0.00000044,0.01245791,0.13199467,-0.00000361,0.13222069,0.00422011,-0
 .00000004,-0.00257835,-0.27844108,0.00000763,0.12331162,-0.01834251,0.
 00000074,0.01580060,-0.00175727,0.00000033,-0.00396817,-0.00109388,0.0
 0000005,0.00077632,-0.00046688,-0.00000002,-0.00003369,-0.00001535,0.,
 -0.00031038,0.00018167,-0.00000003,0.00023461,-0.00009445,-0.00000001,
 -0.00074269,0.00152042,0.00000011,-0.00060001,0.00049114,-0.00000010,0
 .00037447,0.29291432,0.00000005,0.00313837,0.00000004,0.00000764,-0.03
 914798,-0.00000400,0.00000063,0.00459625,-0.00000045,0.00000033,0.0093
 4635,0.00000009,0.00000004,0.00061760,-0.00000003,-0.00000001,-0.00095
 558,0.,0.,0.00004248,0.,-0.00000003,-0.00086590,0.,-0.00000001,-0.0003
 9445,0.00000002,0.00000011,0.00532388,-0.00000002,-0.00000010,-0.00280
 399,0.,-0.00000848,0.02628555,0.02835116,-0.00000089,-0.00940842,0.123
 83463,-0.00000402,-0.12890718,-0.01553538,0.00000049,0.01245791,-0.002
 86539,0.00000005,-0.00157534,-0.00056880,0.00000002,0.00051119,-0.0003
 2487,0.00000001,0.00024196,-0.00022513,0.,-0.00029360,0.00062404,-0.00
 000002,0.00015774,-0.00147035,0.00000004,-0.00060395,-0.00125266,0.,-0
 .00592410,-0.00037447,0.00000002,0.00095798,-0.13199490,0.00000432,0.1
 3222109,-0.00460343,0.00000039,-0.00189569,0.00513264,-0.00000010,-0.0
 2742625,-0.05779141,0.00000059,-0.00677145,0.00432914,0.00000008,0.028
 13989,0.00282791,-0.00000019,-0.00051812,-0.00013469,-0.00000001,-0.00
 040046,0.00057954,-0.00000002,0.00017873,-0.00036371,0.00000003,0.0020
 4555,-0.00483924,0.00000029,0.00063203,-0.00102127,0.,0.00010395,0.000
 09589,0.,-0.00138400,0.00091697,-0.00000018,0.00046087,0.05472648,0.00
 000039,0.00857458,0.00000004,-0.00000003,0.00428150,0.00000078,0.00000
 061,-0.03734249,-0.00000067,-0.00000002,0.00433859,-0.00000088,-0.0000
 0019,-0.00345803,0.00000003,0.,-0.00045616,0.00000001,-0.00000002,-0.0
 0018540,0.,0.00000002,0.00035354,-0.00000006,0.00000029,0.00487613,-0.
 00000004,0.,-0.00101535,0.,0.,0.00000434,0.00000004,-0.00000019,-0.005
 28472,0.,-0.00000084,0.02586338,-0.00266790,0.00000006,0.00071497,0.00
 258920,-0.00000011,-0.00857577,-0.00525155,-0.00000071,-0.34975001,-0.
 00277633,0.00000003,-0.01282781,-0.00177827,0.00000007,0.00127878,0.00
 032528,0.,-0.00023978,-0.00005648,0.,0.00058213,-0.00048303,0.00000001
 ,-0.00118336,0.00293583,-0.00000010,0.00090124,0.00008440,0.,0.0006503
 1,0.00017295,0.,-0.00050685,-0.00019428,0.00000002,0.00061366,0.006979
 42,0.00000074,0.36840176,0.00009987,0.,0.00004312,-0.00029829,0.,0.000
 41941,-0.00054393,0.00000003,-0.00091046,-0.00096660,0.00000041,0.0023
 9028,-0.03351260,0.00000076,-0.00633418,-0.25594566,0.00000538,-0.1279
 3820,0.00447404,0.00000003,0.00318793,0.00106156,0.00000008,0.00031193
 ,-0.00040437,0.00000003,0.00068951,0.00018240,-0.00000006,-0.00027188,
 -0.00002078,0.,-0.00001947,-0.00010831,0.,-0.00006221,0.00002251,0.,0.
 00006536,0.28617825,0.,0.00013508,0.,0.,-0.00059402,-0.00000001,0.0000
 0004,0.00044886,0.00000003,0.00000046,0.01378889,-0.00000013,0.0000009
 0,-0.00681285,0.00000025,0.00000527,-0.04051121,0.00000310,-0.00000007
 ,0.00496649,-0.00000012,0.00000010,0.00431348,-0.00000004,0.00000004,0
 .00050513,-0.00000002,-0.00000007,-0.00196451,0.00000001,0.,0.00016546
 ,0.,0.,-0.00006766,0.,0.,0.00023850,0.,-0.00000663,0.02685839,0.000135
 11,0.,-0.00020622,0.00025004,0.,0.00012251,0.00013914,0.,0.00070710,0.
 00452412,-0.00000020,-0.00033688,0.02108394,-0.00000051,0.01474434,-0.
 12988379,0.00000318,-0.13989342,-0.02772206,0.00000073,-0.00574450,-0.
 00059058,-0.00000002,-0.00782101,0.00241473,-0.00000008,-0.00033050,-0
 .00046241,0.00000002,0.00017068,-0.00002485,0.,0.00000815,0.00007297,0
 .,0.00004977,-0.00001642,0.,-0.00000150,0.12921813,-0.00000309,0.13842
 275,-0.00029829,0.,-0.00041941,0.00009987,0.,-0.00004312,0.00018240,-0
 .00000006,0.00027188,-0.00040438,0.00000003,-0.00068951,0.00106156,0.0
 0000008,-0.00031194,0.00447408,0.,-0.00318794,-0.25594528,0.00000621,0
 .12793837,-0.03351262,0.00000081,0.00633425,-0.00096661,0.00000040,-0.
 00239028,-0.00054393,0.00000003,0.00091047,-0.00010831,0.,0.00006221,-
 0.00002078,0.,0.00001947,-0.00004438,0.,0.00005886,-0.00017370,-0.0000
 0004,0.00073041,0.28617787,-0.00000001,-0.00059402,0.00000002,0.,0.000
 13508,0.,-0.00000007,-0.00196451,0.,0.00000002,0.00050513,0.,0.0000001
 0,0.00431348,-0.00000004,0.00000010,0.00496649,0.00000006,0.00000611,-
 0.04051121,-0.00000374,0.00000077,-0.00681285,-0.00000012,0.00000043,0
 .01378889,0.00000004,0.00000004,0.00044886,-0.00000003,0.,-0.00006766,
 0.,0.,0.00016546,0.,0.,0.00010204,0.,-0.00000004,-0.00157209,-0.000000
 01,-0.00000748,0.02685839,-0.00025003,0.,0.00012251,-0.00013511,0.,-0.
 00020622,0.00046241,-0.00000001,0.00017068,-0.00241473,0.00000007,-0.0
 0033049,0.00059057,-0.00000006,-0.00782101,0.02772205,-0.00000080,-0.0
 0574454,0.12988396,-0.00000382,-0.13989380,-0.02108387,0.00000065,0.01
 474436,-0.00452412,0.00000011,-0.00033687,-0.00013914,0.,0.00070710,-0
 .00007297,0.,0.00004977,0.00002485,0.,0.00000815,-0.00013153,0.,0.0000
 4669,-0.00073041,0.00000002,0.00006204,-0.12921835,0.00000382,0.138423
 12,0.00513267,0.00000007,0.02742623,-0.00460342,0.00000040,0.00189570,
 -0.00102127,0.,-0.00010395,-0.00483924,0.00000029,-0.00063202,-0.00036
 371,0.00000002,-0.00204555,0.00057954,-0.00000002,-0.00017873,-0.00013
 469,0.,0.00040046,0.00282791,-0.00000019,0.00051811,0.00432911,-0.0000
 0010,-0.02813992,-0.05779140,0.00000063,0.00677104,0.00091697,-0.00000
 019,-0.00046087,0.00009590,0.,0.00138399,0.00016706,-0.00000003,-0.000
 00345,-0.00004438,0.,0.00013153,0.00002251,0.,0.00001642,0.05472646,-0
 .00000004,0.00428150,-0.00000086,0.00000040,0.00857458,-0.00000008,0.,
 -0.00101535,0.00000001,0.00000027,0.00487613,0.00000001,0.00000002,0.0
 0035354,0.00000005,-0.00000002,-0.00018540,0.00000001,-0.00000001,-0.0
 0045616,-0.00000001,-0.00000018,-0.00345803,0.,0.,0.00433859,0.0000007
 7,0.00000064,-0.03734249,-0.00000133,-0.00000019,-0.00528472,0.0000000
 3,0.,0.00000434,-0.00000004,-0.00000003,-0.00089045,0.,0.,0.00010204,0
 .,0.,0.00023850,0.,-0.00000088,0.02586338,-0.00258922,0.00000003,-0.00
 857580,0.00266791,-0.00000011,0.00071496,-0.00008440,0.,0.00065031,-0.
 00293582,0.00000007,0.00090125,0.00048303,-0.00000002,-0.00118336,0.00
 005648,0.,0.00058213,-0.00032527,0.,-0.00023978,0.00177827,-0.00000004
 ,0.00127878,0.00277630,-0.00000014,-0.01282778,0.00525114,-0.00000129,
 -0.34975003,0.00019428,0.00000002,0.00061366,-0.00017295,0.,-0.0005068
 5,0.00000345,0.,-0.00010446,-0.00005886,0.,0.00004669,-0.00006536,0.,-
 0.00000150,-0.00697898,0.00000145,0.36840178\\0.00012788,0.,-0.0003635
 2,0.00012788,0.,0.00036351,-0.00041698,-0.00000005,0.00004237,0.000491
 57,0.00000015,-0.00001588,-0.00043901,-0.00000005,-0.00015086,0.000174
 74,-0.00000022,0.00004354,0.00017474,-0.00000023,-0.00004355,-0.000439
 01,-0.00000005,0.00015086,0.00049156,0.00000018,0.00001588,-0.00041698
 ,-0.00000004,-0.00004237,-0.00002885,0.,0.00004280,-0.00002885,0.00000
 002,-0.00004279,0.00006536,0.,0.00000857,0.00002530,0.00000016,-0.0000
 2796,0.00002530,0.00000016,0.00002796,0.00006536,-0.00000001,-0.000008
 57\\\@
 The archive entry for this job was punched.


 OUR LITTLE SYSTEMS HAVE THEIR DAY,    
   THEY HAVE THEIR DAY AND CEASE TO BE.
   THEY ARE BUT BROKEN LIGHTS OF THEE, 
 AND THOU, OH LORD, ART MORE THAN THEY.
          -------------------          
 LET KNOWLEDGE GROW FROM MORE TO MORE, 
   BUT MORE OF REVERENCE IN US DWELL.  
   THAT MIND AND SOUL, ACCORDING WELL, 
 MAY MAKE ONE MUSIC AS BEFORE.....     
          -------------------          
                    LORD TENNYSON      
 Job cpu time:       0 days  1 hours  7 minutes  9.1 seconds.
 Elapsed time:       0 days  0 hours  4 minutes 14.3 seconds.
 File lengths (MBytes):  RWF=     89 Int=      0 D2E=      0 Chk=      5 Scr=      1
 Normal termination of Gaussian 16 at Tue Mar 25 12:14:51 2025.
