 Entering Gaussian System, Link 0=g16
 Initial command:
 /apps/gaussian/g16-c01-avx/g16/l1.exe "/var/tmp/pbs.835971[2].pbs/structure_1/reduced/Gau-2064279.inp" -scrdir="/var/tmp/pbs.835971[2].pbs/structure_1/reduced/"
 Entering Link 1 = /apps/gaussian/g16-c01-avx/g16/l1.exe PID=   2064280.
  
 Copyright (c) 1988-2019, Gaussian, Inc.  All Rights Reserved.
  
 This is part of the Gaussian(R) 16 program.  It is based on
 the Gaussian(R) 09 system (copyright 2009, Gaussian, Inc.),
 the Gaussian(R) 03 system (copyright 2003, Gaussian, Inc.),
 the Gaussian(R) 98 system (copyright 1998, Gaussian, Inc.),
 the Gaussian(R) 94 system (copyright 1995, Gaussian, Inc.),
 the Gaussian 92(TM) system (copyright 1992, Gaussian, Inc.),
 the Gaussian 90(TM) system (copyright 1990, Gaussian, Inc.),
 the Gaussian 88(TM) system (copyright 1988, Gaussian, Inc.),
 the Gaussian 86(TM) system (copyright 1986, Carnegie Mellon
 University), and the Gaussian 82(TM) system (copyright 1983,
 Carnegie Mellon University). Gaussian is a federally registered
 trademark of Gaussian, Inc.
  
 This software contains proprietary and confidential information,
 including trade secrets, belonging to Gaussian, Inc.
  
 This software is provided under written license and may be
 used, copied, transmitted, or stored only in accord with that
 written license.
  
 The following legend is applicable only to US Government
 contracts under FAR:
  
                    RESTRICTED RIGHTS LEGEND
  
 Use, reproduction and disclosure by the US Government is
 subject to restrictions as set forth in subparagraphs (a)
 and (c) of the Commercial Computer Software - Restricted
 Rights clause in FAR 52.227-19.
  
 Gaussian, Inc.
 340 Quinnipiac St., Bldg. 40, Wallingford CT 06492
  
  
 ---------------------------------------------------------------
 Warning -- This program may not be used in any manner that
 competes with the business of Gaussian, Inc. or will provide
 assistance to any competitor of Gaussian, Inc.  The licensee
 of this program is prohibited from giving any competitor of
 Gaussian, Inc. access to this program.  By using this program,
 the user acknowledges that Gaussian, Inc. is engaged in the
 business of creating and licensing software in the field of
 computational chemistry and represents and warrants to the
 licensee that it is not a competitor of Gaussian, Inc. and that
 it will not use this program in any manner prohibited above.
 ---------------------------------------------------------------
  

 Cite this work as:
 Gaussian 16, Revision C.01,
 M. J. Frisch, G. W. Trucks, H. B. Schlegel, G. E. Scuseria, 
 M. A. Robb, J. R. Cheeseman, G. Scalmani, V. Barone, 
 G. A. Petersson, H. Nakatsuji, X. Li, M. Caricato, A. V. Marenich, 
 J. Bloino, B. G. Janesko, R. Gomperts, B. Mennucci, H. P. Hratchian, 
 J. V. Ortiz, A. F. Izmaylov, J. L. Sonnenberg, D. Williams-Young, 
 F. Ding, F. Lipparini, F. Egidi, J. Goings, B. Peng, A. Petrone, 
 T. Henderson, D. Ranasinghe, V. G. Zakrzewski, J. Gao, N. Rega, 
 G. Zheng, W. Liang, M. Hada, M. Ehara, K. Toyota, R. Fukuda, 
 J. Hasegawa, M. Ishida, T. Nakajima, Y. Honda, O. Kitao, H. Nakai, 
 T. Vreven, K. Throssell, J. A. Montgomery, Jr., J. E. Peralta, 
 F. Ogliaro, M. J. Bearpark, J. J. Heyd, E. N. Brothers, K. N. Kudin, 
 V. N. Staroverov, T. A. Keith, R. Kobayashi, J. Normand, 
 K. Raghavachari, A. P. Rendell, J. C. Burant, S. S. Iyengar, 
 J. Tomasi, M. Cossi, J. M. Millam, M. Klene, C. Adamo, R. Cammi, 
 J. W. Ochterski, R. L. Martin, K. Morokuma, O. Farkas, 
 J. B. Foresman, and D. J. Fox, Gaussian, Inc., Wallingford CT, 2019.
 
 ******************************************
 Gaussian 16:  ES64L-G16RevC.01  3-Jul-2019
                25-Mar-2025 
 ******************************************
 %Chk=entry_0_reduced_neutral.chk
 %mem=64GB
 %nprocshared=16
 Will use up to   16 processors via shared memory.
 --------------------------------------
 #P M062X/6-31++G(d,p) freq=NoRaman opt
 --------------------------------------
 1/18=20,19=15,26=3,38=1/1,3;
 2/9=110,12=2,17=6,18=5,40=1/2;
 3/5=1,6=6,7=1111,11=2,25=1,30=1,71=1,74=-55/1,2,3;
 4//1;
 5/5=2,38=5/2;
 6/7=2,8=2,9=2,10=2,28=1/1;
 7//1,2,3,16;
 1/18=20,19=15,26=3/3(2);
 2/9=110/2;
 99//99;
 2/9=110/2;
 3/5=1,6=6,7=1111,11=2,25=1,30=1,71=1,74=-55/1,2,3;
 4/5=5,16=3,69=1/1;
 5/5=2,38=5/2;
 7//1,2,3,16;
 1/18=20,19=15,26=3/3(-5);
 2/9=110/2;
 6/7=2,8=2,9=2,10=2,19=2,28=1/1;
 99/9=1/99;
 Leave Link    1 at Tue Mar 25 12:08:22 2025, MaxMem=  8589934592 cpu:               0.3 elap:               0.0
 (Enter /apps/gaussian/g16-c01-avx/g16/l101.exe)
 ------------------------
 Generated Gaussian Input
 ------------------------
 Symbolic Z-matrix:
 Charge =  0 Multiplicity = 1
 C
 C                    1    B1
 C                    2    B2       1    A2
 C                    3    B3       2    A3       1    D3       0
 N                    4    B4       3    A4       2    D4       0
 C                    5    B5       4    A5       3    D5       0
 C                    6    B6       5    A6       4    D6       0
 N                    7    B7       6    A7       4    D7       0
 C                    8    B8       4    A8       7    D8       0
 C                    9    B9       1    A9       2    D9       0
 H                    1    B10      10   A10      2    D10      0
 H                    2    B11      3    A11      1    D11      0
 H                    3    B12      2    A12      4    D12      0
 H                    5    B13      6    A13      4    D13      0
 H                    6    B14      5    A14      7    D14      0
 H                    7    B15      8    A15      6    D15      0
 H                    8    B16      7    A16      9    D16      0
 H                    10   B17      1    A17      9    D17      0
       Variables:
  B1                    1.39767                  
  B2                    1.39694                  
  A2                  120.4082                   
  B3                    1.39509                  
  A3                  119.80458                  
  D3                   -1.18145                  
  B4                    1.41761                  
  A4                  121.25615                  
  D4                  176.80843                  
  B5                    1.37928                  
  A5                  119.08601                  
  D5                  177.31712                  
  B6                    1.34356                  
  A6                  121.70175                  
  D6                    7.21738                  
  B7                    1.37928                  
  A7                  121.70176                  
  D7                    3.70176                  
  B8                    1.41761                  
  A8                   30.68877                  
  D8                  173.8775                   
  B9                    1.39509                  
  A9                   30.11982                  
  D9                 -178.98097                  
  B10                   1.08714                  
  A10                 119.77864                  
  D10                 179.07818                  
  B11                   1.08714                  
  A11                 119.77863                  
  D11                -179.07823                  
  B12                   1.0852                   
  A12                 119.67852                  
  D12                 179.53124                  
  B13                   1.01014                  
  A13                 118.30659                  
  D13                 155.06903                  
  B14                   1.08385                  
  A14                 115.41687                  
  D14                -179.42375                  
  B15                   1.08385                  
  A15                 115.41688                  
  D15                 179.42377                  
  B16                   1.01014                  
  A16                 118.30657                  
  D16                -155.06876                  
  B17                   1.0852                   
  A17                 119.67853                  
  D17                -179.53124                  
 
 ITRead=  0  0  0  0  0  0  0  0  0  0  0  0  0  0  0  0  0  0
 MicOpt= -1 -1 -1 -1 -1 -1 -1 -1 -1 -1 -1 -1 -1 -1 -1 -1 -1 -1
 NAtoms=     18 NQM=       18 NQMF=       0 NMMI=      0 NMMIF=      0
                NMic=       0 NMicF=      0.
                    Isotopes and Nuclear Properties:
 (Nuclear quadrupole moments (NQMom) in fm**2, nuclear magnetic moments (NMagM)
  in nuclear magnetons)

  Atom         1           2           3           4           5           6           7           8           9          10
 IAtWgt=          12          12          12          12          14          12          12          14          12          12
 AtmWgt=  12.0000000  12.0000000  12.0000000  12.0000000  14.0030740  12.0000000  12.0000000  14.0030740  12.0000000  12.0000000
 NucSpn=           0           0           0           0           2           0           0           2           0           0
 AtZEff=  -0.0000000  -0.0000000  -0.0000000  -0.0000000  -0.0000000  -0.0000000  -0.0000000  -0.0000000  -0.0000000  -0.0000000
 NQMom=    0.0000000   0.0000000   0.0000000   0.0000000   2.0440000   0.0000000   0.0000000   2.0440000   0.0000000   0.0000000
 NMagM=    0.0000000   0.0000000   0.0000000   0.0000000   0.4037610   0.0000000   0.0000000   0.4037610   0.0000000   0.0000000
 AtZNuc=   6.0000000   6.0000000   6.0000000   6.0000000   7.0000000   6.0000000   6.0000000   7.0000000   6.0000000   6.0000000

  Atom        11          12          13          14          15          16          17          18
 IAtWgt=           1           1           1           1           1           1           1           1
 AtmWgt=   1.0078250   1.0078250   1.0078250   1.0078250   1.0078250   1.0078250   1.0078250   1.0078250
 NucSpn=           1           1           1           1           1           1           1           1
 AtZEff=  -0.0000000  -0.0000000  -0.0000000  -0.0000000  -0.0000000  -0.0000000  -0.0000000  -0.0000000
 NQMom=    0.0000000   0.0000000   0.0000000   0.0000000   0.0000000   0.0000000   0.0000000   0.0000000
 NMagM=    2.7928460   2.7928460   2.7928460   2.7928460   2.7928460   2.7928460   2.7928460   2.7928460
 AtZNuc=   1.0000000   1.0000000   1.0000000   1.0000000   1.0000000   1.0000000   1.0000000   1.0000000
 Leave Link  101 at Tue Mar 25 12:08:22 2025, MaxMem=  8589934592 cpu:               3.2 elap:               0.2
 (Enter /apps/gaussian/g16-c01-avx/g16/l103.exe)

 GradGradGradGradGradGradGradGradGradGradGradGradGradGradGradGradGradGrad
 Berny optimization.
 Initialization pass.
                           ----------------------------
                           !    Initial Parameters    !
                           ! (Angstroms and Degrees)  !
 --------------------------                            --------------------------
 ! Name  Definition              Value          Derivative Info.                !
 --------------------------------------------------------------------------------
 ! R1    R(1,2)                  1.3977         estimate D2E/DX2                !
 ! R2    R(1,10)                 1.3969         estimate D2E/DX2                !
 ! R3    R(1,11)                 1.0871         estimate D2E/DX2                !
 ! R4    R(2,3)                  1.3969         estimate D2E/DX2                !
 ! R5    R(2,12)                 1.0871         estimate D2E/DX2                !
 ! R6    R(3,4)                  1.3951         estimate D2E/DX2                !
 ! R7    R(3,13)                 1.0852         estimate D2E/DX2                !
 ! R8    R(4,5)                  1.4176         estimate D2E/DX2                !
 ! R9    R(4,9)                  1.4262         estimate D2E/DX2                !
 ! R10   R(5,6)                  1.3793         estimate D2E/DX2                !
 ! R11   R(5,14)                 1.0101         estimate D2E/DX2                !
 ! R12   R(6,7)                  1.3436         estimate D2E/DX2                !
 ! R13   R(6,15)                 1.0838         estimate D2E/DX2                !
 ! R14   R(7,8)                  1.3793         estimate D2E/DX2                !
 ! R15   R(7,16)                 1.0838         estimate D2E/DX2                !
 ! R16   R(8,9)                  1.4176         estimate D2E/DX2                !
 ! R17   R(8,17)                 1.0101         estimate D2E/DX2                !
 ! R18   R(9,10)                 1.3951         estimate D2E/DX2                !
 ! R19   R(10,18)                1.0852         estimate D2E/DX2                !
 ! A1    A(2,1,10)             120.4082         estimate D2E/DX2                !
 ! A2    A(2,1,11)             119.8068         estimate D2E/DX2                !
 ! A3    A(10,1,11)            119.7786         estimate D2E/DX2                !
 ! A4    A(1,2,3)              120.4082         estimate D2E/DX2                !
 ! A5    A(1,2,12)             119.8068         estimate D2E/DX2                !
 ! A6    A(3,2,12)             119.7786         estimate D2E/DX2                !
 ! A7    A(2,3,4)              119.8046         estimate D2E/DX2                !
 ! A8    A(2,3,13)             119.6785         estimate D2E/DX2                !
 ! A9    A(4,3,13)             120.5152         estimate D2E/DX2                !
 ! A10   A(3,4,5)              121.2561         estimate D2E/DX2                !
 ! A11   A(3,4,9)              119.7767         estimate D2E/DX2                !
 ! A12   A(5,4,9)              118.8262         estimate D2E/DX2                !
 ! A13   A(4,5,6)              119.086          estimate D2E/DX2                !
 ! A14   A(4,5,14)             117.8517         estimate D2E/DX2                !
 ! A15   A(6,5,14)             118.3066         estimate D2E/DX2                !
 ! A16   A(5,6,7)              121.7018         estimate D2E/DX2                !
 ! A17   A(5,6,15)             115.4169         estimate D2E/DX2                !
 ! A18   A(7,6,15)             122.8787         estimate D2E/DX2                !
 ! A19   A(6,7,8)              121.7018         estimate D2E/DX2                !
 ! A20   A(6,7,16)             122.8787         estimate D2E/DX2                !
 ! A21   A(8,7,16)             115.4169         estimate D2E/DX2                !
 ! A22   A(7,8,9)              119.086          estimate D2E/DX2                !
 ! A23   A(7,8,17)             118.3066         estimate D2E/DX2                !
 ! A24   A(9,8,17)             117.8516         estimate D2E/DX2                !
 ! A25   A(4,9,8)              118.8262         estimate D2E/DX2                !
 ! A26   A(4,9,10)             119.7767         estimate D2E/DX2                !
 ! A27   A(8,9,10)             121.2562         estimate D2E/DX2                !
 ! A28   A(1,10,9)             119.8046         estimate D2E/DX2                !
 ! A29   A(1,10,18)            119.6785         estimate D2E/DX2                !
 ! A30   A(9,10,18)            120.5152         estimate D2E/DX2                !
 ! D1    D(10,1,2,3)            -0.0001         estimate D2E/DX2                !
 ! D2    D(10,1,2,12)          179.0779         estimate D2E/DX2                !
 ! D3    D(11,1,2,3)          -179.078          estimate D2E/DX2                !
 ! D4    D(11,1,2,12)            0.0            estimate D2E/DX2                !
 ! D5    D(2,1,10,9)             1.1816         estimate D2E/DX2                !
 ! D6    D(2,1,10,18)         -178.3497         estimate D2E/DX2                !
 ! D7    D(11,1,10,9)         -179.7403         estimate D2E/DX2                !
 ! D8    D(11,1,10,18)           0.7285         estimate D2E/DX2                !
 ! D9    D(1,2,3,4)             -1.1815         estimate D2E/DX2                !
 ! D10   D(1,2,3,13)           178.3498         estimate D2E/DX2                !
 ! D11   D(12,2,3,4)           179.7403         estimate D2E/DX2                !
 ! D12   D(12,2,3,13)           -0.7284         estimate D2E/DX2                !
 ! D13   D(2,3,4,5)            176.8084         estimate D2E/DX2                !
 ! D14   D(2,3,4,9)              1.174          estimate D2E/DX2                !
 ! D15   D(13,3,4,5)            -2.7188         estimate D2E/DX2                !
 ! D16   D(13,3,4,9)          -178.3532         estimate D2E/DX2                !
 ! D17   D(3,4,5,6)            177.3171         estimate D2E/DX2                !
 ! D18   D(3,4,5,14)            22.1356         estimate D2E/DX2                !
 ! D19   D(9,4,5,6)             -7.0079         estimate D2E/DX2                !
 ! D20   D(9,4,5,14)          -162.1895         estimate D2E/DX2                !
 ! D21   D(3,4,9,8)            175.7403         estimate D2E/DX2                !
 ! D22   D(3,4,9,10)            -0.0001         estimate D2E/DX2                !
 ! D23   D(5,4,9,8)             -0.0001         estimate D2E/DX2                !
 ! D24   D(5,4,9,10)          -175.7405         estimate D2E/DX2                !
 ! D25   D(4,5,6,7)              7.2174         estimate D2E/DX2                !
 ! D26   D(4,5,6,15)          -172.2064         estimate D2E/DX2                !
 ! D27   D(14,5,6,7)           162.2864         estimate D2E/DX2                !
 ! D28   D(14,5,6,15)          -17.1373         estimate D2E/DX2                !
 ! D29   D(5,6,7,8)              0.0            estimate D2E/DX2                !
 ! D30   D(5,6,7,16)          -179.3803         estimate D2E/DX2                !
 ! D31   D(15,6,7,8)           179.3803         estimate D2E/DX2                !
 ! D32   D(15,6,7,16)            0.0            estimate D2E/DX2                !
 ! D33   D(6,7,8,9)             -7.2174         estimate D2E/DX2                !
 ! D34   D(6,7,8,17)          -162.2862         estimate D2E/DX2                !
 ! D35   D(16,7,8,9)           172.2064         estimate D2E/DX2                !
 ! D36   D(16,7,8,17)           17.1376         estimate D2E/DX2                !
 ! D37   D(7,8,9,4)              7.008          estimate D2E/DX2                !
 ! D38   D(7,8,9,10)          -177.317          estimate D2E/DX2                !
 ! D39   D(17,8,9,4)           162.1893         estimate D2E/DX2                !
 ! D40   D(17,8,9,10)          -22.1357         estimate D2E/DX2                !
 ! D41   D(4,9,10,1)            -1.174          estimate D2E/DX2                !
 ! D42   D(4,9,10,18)          178.3533         estimate D2E/DX2                !
 ! D43   D(8,9,10,1)          -176.8084         estimate D2E/DX2                !
 ! D44   D(8,9,10,18)            2.7189         estimate D2E/DX2                !
 --------------------------------------------------------------------------------
 Trust Radius=3.00D-01 FncErr=1.00D-07 GrdErr=1.00D-06 EigMax=2.50D+02 EigMin=1.00D-04
 Number of steps in this run=    103 maximum allowed number of steps=    108.
 GradGradGradGradGradGradGradGradGradGradGradGradGradGradGradGradGradGrad

 Leave Link  103 at Tue Mar 25 12:08:22 2025, MaxMem=  8589934592 cpu:               0.2 elap:               0.0
 (Enter /apps/gaussian/g16-c01-avx/g16/l202.exe)
                          Input orientation:                          
 ---------------------------------------------------------------------
 Center     Atomic      Atomic             Coordinates (Angstroms)
 Number     Number       Type             X           Y           Z
 ---------------------------------------------------------------------
      1          6           0        0.000000    0.000000    0.000000
      2          6           0        0.000000    0.000000    1.397673
      3          6           0        1.204782    0.000000    2.104746
      4          6           0        2.415413   -0.024960    1.411917
      5          7           0        3.655565    0.041735    2.095423
      6          6           0        4.826017   -0.042589    1.370614
      7          6           0        4.826017   -0.042587    0.027059
      8          7           0        3.655566    0.041740   -0.697750
      9          6           0        2.415413   -0.024958   -0.014244
     10          6           0        1.204782    0.000002   -0.707073
     11          1           0       -0.943193    0.015179   -0.540390
     12          1           0       -0.943193    0.015180    1.938063
     13          1           0        1.191160    0.027152    3.189521
     14          1           0        3.673689   -0.230866    3.067915
     15          1           0        5.733141   -0.117814    1.958994
     16          1           0        5.733141   -0.117810   -0.561320
     17          1           0        3.673689   -0.230862   -1.670241
     18          1           0        1.191161    0.027155   -1.791848
 ---------------------------------------------------------------------
                    Distance matrix (angstroms):
                    1          2          3          4          5
     1  C    0.000000
     2  C    1.397673   0.000000
     3  C    2.425172   1.396944   0.000000
     4  C    2.797919   2.415584   1.395085   0.000000
     5  N    4.213751   3.721795   2.451156   1.417606   0.000000
     6  C    5.017055   4.826281   3.695146   2.411023   1.379281
     7  C    4.826281   5.017055   4.175158   2.780136   2.378066
     8  N    3.721795   4.213751   3.723180   2.448086   2.793173
     9  C    2.415584   2.797920   2.440568   1.426162   2.448085
    10  C    1.396944   2.425172   2.811819   2.440568   3.723180
    11  H    1.087136   2.155442   3.407458   3.885016   5.300641
    12  H    2.155442   1.087136   2.154486   3.399805   4.601527
    13  H    3.404797   2.151818   1.085200   2.159024   2.696397
    14  H    4.791805   4.042153   2.660168   2.089972   1.010139
    15  H    6.059739   5.761759   4.532235   3.363812   2.088154
    16  H    5.761759   6.059739   5.256218   3.861296   3.376398
    17  H    4.042152   4.791804   4.516561   3.335469   3.775561
    18  H    2.151818   3.404797   3.896713   3.430105   4.602649
                    6          7          8          9         10
     6  C    0.000000
     7  C    1.343555   0.000000
     8  N    2.378066   1.379281   0.000000
     9  C    2.780136   2.411022   1.417606   0.000000
    10  C    4.175158   3.695146   2.451156   1.395085   0.000000
    11  H    6.077751   5.797338   4.601527   3.399805   2.154487
    12  H    5.797338   6.077751   5.300641   3.885016   3.407459
    13  H    4.065153   4.818528   4.602650   3.430105   3.896713
    14  H    2.060131   3.257317   3.775563   3.335470   4.516563
    15  H    1.083846   2.135627   3.376398   3.861296   5.256217
    16  H    2.135627   1.083846   2.088154   3.363812   4.532235
    17  H    3.257316   2.060130   1.010138   2.089971   2.660167
    18  H    4.818528   4.065153   2.696397   2.159024   1.085200
                   11         12         13         14         15
    11  H    0.000000
    12  H    2.478453   0.000000
    13  H    4.297423   2.474218   0.000000
    14  H    5.864810   4.759485   2.498862   0.000000
    15  H    7.130080   6.677691   4.707951   2.341758   0.000000
    16  H    6.677691   7.130080   5.892318   4.174383   2.520314
    17  H    4.759485   5.864810   5.463223   4.738156   4.174382
    18  H    2.474218   4.297423   4.981369   5.463224   5.892318
                   16         17         18
    16  H    0.000000
    17  H    2.341758   0.000000
    18  H    4.707951   2.498861   0.000000
 Stoichiometry    C8H8N2
 Framework group  C1[X(C8H8N2)]
 Deg. of freedom    48
 Full point group                 C1      NOp   1
 Largest Abelian subgroup         C1      NOp   1
 Largest concise Abelian subgroup C1      NOp   1
                         Standard orientation:                         
 ---------------------------------------------------------------------
 Center     Atomic      Atomic             Coordinates (Angstroms)
 Number     Number       Type             X           Y           Z
 ---------------------------------------------------------------------
      1          6           0       -2.454898   -0.698837    0.009482
      2          6           0       -2.454898    0.698836    0.009481
      3          6           0       -1.250161    1.405910   -0.001054
      4          6           0       -0.039359    0.713081    0.013320
      5          7           0        1.200163    1.396587   -0.064218
      6          6           0        2.371308    0.671778    0.009869
      7          6           0        2.371308   -0.671777    0.009868
      8          7           0        1.200163   -1.396587   -0.064220
      9          6           0       -0.039358   -0.713081    0.013319
     10          6           0       -1.250161   -1.405910   -0.001053
     11          1           0       -3.398187   -1.239226    0.002552
     12          1           0       -3.398187    1.239226    0.002549
     13          1           0       -1.264020    2.490684   -0.028087
     14          1           0        1.220669    2.369079    0.208214
     15          1           0        3.279054    1.260157    0.077159
     16          1           0        3.279054   -1.260157    0.077157
     17          1           0        1.220669   -2.369077    0.208214
     18          1           0       -1.264020   -2.490685   -0.028086
 ---------------------------------------------------------------------
 Rotational constants (GHZ):           3.0234729           1.2360303           0.8780290
 Leave Link  202 at Tue Mar 25 12:08:22 2025, MaxMem=  8589934592 cpu:               0.1 elap:               0.0
 (Enter /apps/gaussian/g16-c01-avx/g16/l301.exe)
 Standard basis: 6-31++G(d,p) (6D, 7F)
 Ernie: Thresh=  0.10000D-02 Tol=  0.10000D-05 Strict=F.
 There are   238 symmetry adapted cartesian basis functions of A   symmetry.
 There are   238 symmetry adapted basis functions of A   symmetry.
   238 basis functions,   384 primitive gaussians,   238 cartesian basis functions
    35 alpha electrons       35 beta electrons
       nuclear repulsion energy       489.1080274851 Hartrees.
 IExCor= 4336 DFT=T Ex+Corr=M062X ExCW=0 ScaHFX=  0.540000
 ScaDFX=  1.000000  1.000000  1.000000  1.000000 ScalE2=  1.000000  1.000000
 IRadAn=      5 IRanWt=     -1 IRanGd=            0 ICorTp=0 IEmpDi=  4
 NAtoms=   18 NActive=   18 NUniq=   18 SFac= 1.00D+00 NAtFMM=   60 NAOKFM=F Big=F
 Integral buffers will be    131072 words long.
 Raffenetti 2 integral format.
 Two-electron integral symmetry is turned on.
 Leave Link  301 at Tue Mar 25 12:08:22 2025, MaxMem=  8589934592 cpu:               0.4 elap:               0.0
 (Enter /apps/gaussian/g16-c01-avx/g16/l302.exe)
 NPDir=0 NMtPBC=     1 NCelOv=     1 NCel=       1 NClECP=     1 NCelD=      1
         NCelK=      1 NCelE2=     1 NClLst=     1 CellRange=     0.0.
 One-electron integrals computed using PRISM.
 One-electron integral symmetry used in STVInt
 NBasis=   238 RedAO= T EigKep=  1.21D-06  NBF=   238
 NBsUse=   237 1.00D-06 EigRej=  4.75D-07 NBFU=   237
 Precomputing XC quadrature grid using
 IXCGrd= 4 IRadAn=           5 IRanWt=          -1 IRanGd=           0 AccXCQ= 0.00D+00.
 Generated NRdTot=       0 NPtTot=           0 NUsed=           0 NTot=          32
 NSgBfM=   238   238   238   238   238 MxSgAt=    18 MxSgA2=    18.
 Leave Link  302 at Tue Mar 25 12:08:22 2025, MaxMem=  8589934592 cpu:               3.5 elap:               0.2
 (Enter /apps/gaussian/g16-c01-avx/g16/l303.exe)
 DipDrv:  MaxL=1.
 Leave Link  303 at Tue Mar 25 12:08:23 2025, MaxMem=  8589934592 cpu:               0.4 elap:               0.0
 (Enter /apps/gaussian/g16-c01-avx/g16/l401.exe)
 ExpMin= 3.60D-02 ExpMax= 4.17D+03 ExpMxC= 6.27D+02 IAcc=3 IRadAn=         5 AccDes= 0.00D+00
 Harris functional with IExCor= 1009 and IRadAn=       5 diagonalized for initial guess.
 HarFok:  IExCor= 1009 AccDes= 0.00D+00 IRadAn=         5 IDoV= 1 UseB2=F ITyADJ=14
 ICtDFT=  3500011 ScaDFX=  1.000000  1.000000  1.000000  1.000000
 FoFCou: FMM=F IPFlag=           0 FMFlag=      100000 FMFlg1=           0
         NFxFlg=           0 DoJE=T BraDBF=F KetDBF=T FulRan=T
         wScrn=  0.000000 ICntrl=       500 IOpCl=  0 I1Cent=   200000004 NGrid=           0
         NMat0=    1 NMatS0=      1 NMatT0=    0 NMatD0=    1 NMtDS0=    0 NMtDT0=    0
 Petite list used in FoFCou.
 Harris En= -418.787770192073    
 JPrj=0 DoOrth=F DoCkMO=F.
 Leave Link  401 at Tue Mar 25 12:08:24 2025, MaxMem=  8589934592 cpu:              16.3 elap:               1.0
 (Enter /apps/gaussian/g16-c01-avx/g16/l502.exe)
 Integral symmetry usage will be decided dynamically.
 Closed shell SCF:
 Using DIIS extrapolation, IDIIS=  1040.
 NGot=  8589934592 LenX=  8589814646 LenY=  8589757561
 Requested convergence on RMS density matrix=1.00D-08 within 128 cycles.
 Requested convergence on MAX density matrix=1.00D-06.
 Requested convergence on             energy=1.00D-06.
 No special actions if energy rises.
 Fock matrices will be formed incrementally for  20 cycles.

 Cycle   1  Pass 1  IDiag  1:
 FoFJK:  IHMeth= 1 ICntrl=       0 DoSepK=F KAlg= 0 I1Cent=           0 FoldK=F
 IRaf= 940000000 NMat=       1 IRICut=       1 DoRegI=T DoRafI=F ISym2E= 0 IDoP0=0 IntGTp=1.
 FoFCou: FMM=F IPFlag=           0 FMFlag=      100000 FMFlg1=           0
         NFxFlg=           0 DoJE=F BraDBF=F KetDBF=F FulRan=T
         wScrn=  0.000000 ICntrl=         0 IOpCl=  0 I1Cent=           0 NGrid=           0
         NMat0=    1 NMatS0=      1 NMatT0=    0 NMatD0=    1 NMtDS0=    0 NMtDT0=    0
 Symmetry not used in FoFCou.
 E= -418.746817018443    
 DIIS: error= 3.90D-02 at cycle   1 NSaved=   1.
 NSaved= 1 IEnMin= 1 EnMin= -418.746817018443     IErMin= 1 ErrMin= 3.90D-02
 ErrMax= 3.90D-02  0.00D+00 EMaxC= 1.00D-01 BMatC= 2.44D-01 BMatP= 2.44D-01
 IDIUse=3 WtCom= 6.10D-01 WtEn= 3.90D-01
 Coeff-Com:  0.100D+01
 Coeff-En:   0.100D+01
 Coeff:      0.100D+01
 Gap=     0.243 Goal=   None    Shift=    0.000
 GapD=    0.243 DampG=1.000 DampE=0.500 DampFc=0.5000 IDamp=-1.
 Damping current iteration by 5.00D-01
 RMSDP=5.18D-02 MaxDP=4.66D+00              OVMax= 2.54D-01

 Cycle   2  Pass 1  IDiag  1:
 RMSU=  1.86D-02    CP:  1.19D+00
 E= -418.867758601494     Delta-E=       -0.120941583051 Rises=F Damp=T
 DIIS: error= 1.02D-02 at cycle   2 NSaved=   2.
 NSaved= 2 IEnMin= 2 EnMin= -418.867758601494     IErMin= 2 ErrMin= 1.02D-02
 ErrMax= 1.02D-02  0.00D+00 EMaxC= 1.00D-01 BMatC= 2.17D-02 BMatP= 2.44D-01
 IDIUse=3 WtCom= 8.98D-01 WtEn= 1.02D-01
 Coeff-Com: -0.124D+00 0.112D+01
 Coeff-En:   0.000D+00 0.100D+01
 Coeff:     -0.112D+00 0.111D+01
 Gap=     0.185 Goal=   None    Shift=    0.000
 RMSDP=1.27D-02 MaxDP=9.10D-01 DE=-1.21D-01 OVMax= 1.31D-01

 Cycle   3  Pass 1  IDiag  1:
 RMSU=  9.58D-03    CP:  1.11D+00  8.59D-01
 E= -418.978178988812     Delta-E=       -0.110420387318 Rises=F Damp=F
 DIIS: error= 6.18D-03 at cycle   3 NSaved=   3.
 NSaved= 3 IEnMin= 3 EnMin= -418.978178988812     IErMin= 3 ErrMin= 6.18D-03
 ErrMax= 6.18D-03  0.00D+00 EMaxC= 1.00D-01 BMatC= 8.19D-03 BMatP= 2.17D-02
 IDIUse=3 WtCom= 9.38D-01 WtEn= 6.18D-02
 Coeff-Com: -0.105D+00 0.445D+00 0.660D+00
 Coeff-En:   0.000D+00 0.000D+00 0.100D+01
 Coeff:     -0.986D-01 0.417D+00 0.681D+00
 Gap=     0.195 Goal=   None    Shift=    0.000
 RMSDP=8.66D-03 MaxDP=6.42D-01 DE=-1.10D-01 OVMax= 6.09D-02

 Cycle   4  Pass 1  IDiag  1:
 RMSU=  3.02D-03    CP:  1.03D+00  7.44D-01  7.29D-01
 E= -418.984541167182     Delta-E=       -0.006362178370 Rises=F Damp=F
 DIIS: error= 3.60D-03 at cycle   4 NSaved=   4.
 NSaved= 4 IEnMin= 4 EnMin= -418.984541167182     IErMin= 4 ErrMin= 3.60D-03
 ErrMax= 3.60D-03  0.00D+00 EMaxC= 1.00D-01 BMatC= 2.63D-03 BMatP= 8.19D-03
 IDIUse=3 WtCom= 9.64D-01 WtEn= 3.60D-02
 Coeff-Com: -0.378D-01 0.101D+00 0.392D+00 0.545D+00
 Coeff-En:   0.000D+00 0.000D+00 0.237D+00 0.763D+00
 Coeff:     -0.364D-01 0.970D-01 0.387D+00 0.553D+00
 Gap=     0.185 Goal=   None    Shift=    0.000
 RMSDP=7.03D-03 MaxDP=5.61D-01 DE=-6.36D-03 OVMax= 1.69D-02

 Cycle   5  Pass 1  IDiag  1:
 RMSU=  8.73D-04    CP:  1.09D+00  8.41D-01  9.07D-01  3.92D-01
 E= -418.987274965998     Delta-E=       -0.002733798816 Rises=F Damp=F
 DIIS: error= 3.05D-04 at cycle   5 NSaved=   5.
 NSaved= 5 IEnMin= 5 EnMin= -418.987274965998     IErMin= 5 ErrMin= 3.05D-04
 ErrMax= 3.05D-04  0.00D+00 EMaxC= 1.00D-01 BMatC= 1.71D-05 BMatP= 2.63D-03
 IDIUse=3 WtCom= 9.97D-01 WtEn= 3.05D-03
 Coeff-Com: -0.343D-02 0.387D-02 0.645D-01 0.121D+00 0.814D+00
 Coeff-En:   0.000D+00 0.000D+00 0.000D+00 0.000D+00 0.100D+01
 Coeff:     -0.342D-02 0.385D-02 0.643D-01 0.121D+00 0.815D+00
 Gap=     0.186 Goal=   None    Shift=    0.000
 RMSDP=6.24D-04 MaxDP=5.73D-02 DE=-2.73D-03 OVMax= 4.65D-03

 Cycle   6  Pass 1  IDiag  1:
 RMSU=  3.04D-04    CP:  1.09D+00  8.57D-01  8.85D-01  4.56D-01  7.92D-01
 E= -418.987307304337     Delta-E=       -0.000032338339 Rises=F Damp=F
 DIIS: error= 1.14D-04 at cycle   6 NSaved=   6.
 NSaved= 6 IEnMin= 6 EnMin= -418.987307304337     IErMin= 6 ErrMin= 1.14D-04
 ErrMax= 1.14D-04  0.00D+00 EMaxC= 1.00D-01 BMatC= 3.30D-06 BMatP= 1.71D-05
 IDIUse=3 WtCom= 9.99D-01 WtEn= 1.14D-03
 Coeff-Com:  0.221D-02-0.660D-02-0.829D-02-0.157D-01 0.192D+00 0.836D+00
 Coeff-En:   0.000D+00 0.000D+00 0.000D+00 0.000D+00 0.000D+00 0.100D+01
 Coeff:      0.221D-02-0.659D-02-0.828D-02-0.157D-01 0.192D+00 0.837D+00
 Gap=     0.186 Goal=   None    Shift=    0.000
 RMSDP=3.30D-04 MaxDP=2.94D-02 DE=-3.23D-05 OVMax= 2.28D-03

 Cycle   7  Pass 1  IDiag  1:
 RMSU=  3.68D-05    CP:  1.09D+00  8.67D-01  8.85D-01  4.50D-01  8.20D-01
                    CP:  1.30D+00
 E= -418.987314281209     Delta-E=       -0.000006976872 Rises=F Damp=F
 DIIS: error= 1.09D-04 at cycle   7 NSaved=   7.
 NSaved= 7 IEnMin= 7 EnMin= -418.987314281209     IErMin= 7 ErrMin= 1.09D-04
 ErrMax= 1.09D-04  0.00D+00 EMaxC= 1.00D-01 BMatC= 6.76D-07 BMatP= 3.30D-06
 IDIUse=3 WtCom= 9.99D-01 WtEn= 1.09D-03
 Coeff-Com:  0.173D-02-0.349D-02-0.151D-01-0.350D-01-0.101D+00 0.289D+00
 Coeff-Com:  0.864D+00
 Coeff-En:   0.000D+00 0.000D+00 0.000D+00 0.000D+00 0.000D+00 0.000D+00
 Coeff-En:   0.100D+01
 Coeff:      0.173D-02-0.349D-02-0.151D-01-0.350D-01-0.101D+00 0.289D+00
 Coeff:      0.864D+00
 Gap=     0.186 Goal=   None    Shift=    0.000
 RMSDP=2.90D-04 MaxDP=2.67D-02 DE=-6.98D-06 OVMax= 1.32D-03

 Cycle   8  Pass 1  IDiag  1:
 RMSU=  2.04D-05    CP:  1.10D+00  8.76D-01  8.85D-01  4.45D-01  8.21D-01
                    CP:  1.56D+00  1.15D+00
 E= -418.987316233390     Delta-E=       -0.000001952181 Rises=F Damp=F
 DIIS: error= 2.22D-05 at cycle   8 NSaved=   8.
 NSaved= 8 IEnMin= 8 EnMin= -418.987316233390     IErMin= 8 ErrMin= 2.22D-05
 ErrMax= 2.22D-05  0.00D+00 EMaxC= 1.00D-01 BMatC= 3.17D-08 BMatP= 6.76D-07
 IDIUse=1 WtCom= 1.00D+00 WtEn= 0.00D+00
 Coeff-Com: -0.277D-03 0.692D-03 0.265D-02 0.377D-02-0.504D-02-0.104D+00
 Coeff-Com: -0.805D-01 0.118D+01
 Coeff:     -0.277D-03 0.692D-03 0.265D-02 0.377D-02-0.504D-02-0.104D+00
 Coeff:     -0.805D-01 0.118D+01
 Gap=     0.186 Goal=   None    Shift=    0.000
 RMSDP=9.47D-05 MaxDP=8.62D-03 DE=-1.95D-06 OVMax= 4.60D-04

 Cycle   9  Pass 1  IDiag  1:
 RMSU=  4.77D-06    CP:  1.10D+00  8.79D-01  8.84D-01  4.44D-01  8.18D-01
                    CP:  1.65D+00  1.31D+00  1.40D+00
 E= -418.987316407919     Delta-E=       -0.000000174529 Rises=F Damp=F
 DIIS: error= 7.90D-06 at cycle   9 NSaved=   9.
 NSaved= 9 IEnMin= 9 EnMin= -418.987316407919     IErMin= 9 ErrMin= 7.90D-06
 ErrMax= 7.90D-06  0.00D+00 EMaxC= 1.00D-01 BMatC= 4.71D-09 BMatP= 3.17D-08
 IDIUse=1 WtCom= 1.00D+00 WtEn= 0.00D+00
 Coeff-Com: -0.233D-03 0.521D-03 0.226D-02 0.426D-02 0.778D-02-0.571D-01
 Coeff-Com: -0.954D-01 0.403D+00 0.735D+00
 Coeff:     -0.233D-03 0.521D-03 0.226D-02 0.426D-02 0.778D-02-0.571D-01
 Coeff:     -0.954D-01 0.403D+00 0.735D+00
 Gap=     0.186 Goal=   None    Shift=    0.000
 RMSDP=9.43D-06 MaxDP=8.52D-04 DE=-1.75D-07 OVMax= 7.71D-05

 Cycle  10  Pass 1  IDiag  1:
 RMSU=  1.41D-06    CP:  1.10D+00  8.80D-01  8.84D-01  4.44D-01  8.17D-01
                    CP:  1.66D+00  1.34D+00  1.46D+00  1.14D+00
 E= -418.987316419066     Delta-E=       -0.000000011147 Rises=F Damp=F
 DIIS: error= 2.40D-06 at cycle  10 NSaved=  10.
 NSaved=10 IEnMin=10 EnMin= -418.987316419066     IErMin=10 ErrMin= 2.40D-06
 ErrMax= 2.40D-06  0.00D+00 EMaxC= 1.00D-01 BMatC= 9.07D-10 BMatP= 4.71D-09
 IDIUse=1 WtCom= 1.00D+00 WtEn= 0.00D+00
 Coeff-Com: -0.365D-04 0.714D-04 0.329D-03 0.938D-03 0.357D-02-0.532D-02
 Coeff-Com: -0.255D-01-0.623D-01 0.276D+00 0.813D+00
 Coeff:     -0.365D-04 0.714D-04 0.329D-03 0.938D-03 0.357D-02-0.532D-02
 Coeff:     -0.255D-01-0.623D-01 0.276D+00 0.813D+00
 Gap=     0.186 Goal=   None    Shift=    0.000
 RMSDP=6.88D-06 MaxDP=6.53D-04 DE=-1.11D-08 OVMax= 3.48D-05

 Cycle  11  Pass 1  IDiag  1:
 RMSU=  6.01D-07    CP:  1.10D+00  8.80D-01  8.84D-01  4.44D-01  8.17D-01
                    CP:  1.66D+00  1.35D+00  1.50D+00  1.20D+00  1.10D+00
 E= -418.987316421397     Delta-E=       -0.000000002331 Rises=F Damp=F
 DIIS: error= 6.19D-07 at cycle  11 NSaved=  11.
 NSaved=11 IEnMin=11 EnMin= -418.987316421397     IErMin=11 ErrMin= 6.19D-07
 ErrMax= 6.19D-07  0.00D+00 EMaxC= 1.00D-01 BMatC= 5.65D-11 BMatP= 9.07D-10
 IDIUse=1 WtCom= 1.00D+00 WtEn= 0.00D+00
 Coeff-Com:  0.225D-04-0.521D-04-0.219D-03-0.332D-03-0.829D-04 0.619D-02
 Coeff-Com:  0.729D-02-0.551D-01-0.492D-01 0.156D+00 0.935D+00
 Coeff:      0.225D-04-0.521D-04-0.219D-03-0.332D-03-0.829D-04 0.619D-02
 Coeff:      0.729D-02-0.551D-01-0.492D-01 0.156D+00 0.935D+00
 Gap=     0.186 Goal=   None    Shift=    0.000
 RMSDP=2.31D-06 MaxDP=2.09D-04 DE=-2.33D-09 OVMax= 9.58D-06

 Cycle  12  Pass 1  IDiag  1:
 RMSU=  2.78D-07    CP:  1.10D+00  8.80D-01  8.84D-01  4.44D-01  8.17D-01
                    CP:  1.66D+00  1.35D+00  1.49D+00  1.24D+00  1.19D+00
                    CP:  1.05D+00
 E= -418.987316421531     Delta-E=       -0.000000000134 Rises=F Damp=F
 DIIS: error= 1.65D-07 at cycle  12 NSaved=  12.
 NSaved=12 IEnMin=12 EnMin= -418.987316421531     IErMin=12 ErrMin= 1.65D-07
 ErrMax= 1.65D-07  0.00D+00 EMaxC= 1.00D-01 BMatC= 6.78D-12 BMatP= 5.65D-11
 IDIUse=1 WtCom= 1.00D+00 WtEn= 0.00D+00
 Coeff-Com:  0.882D-05-0.202D-04-0.932D-04-0.155D-03-0.223D-03 0.221D-02
 Coeff-Com:  0.366D-02-0.144D-01-0.331D-01 0.162D-01 0.333D+00 0.692D+00
 Coeff:      0.882D-05-0.202D-04-0.932D-04-0.155D-03-0.223D-03 0.221D-02
 Coeff:      0.366D-02-0.144D-01-0.331D-01 0.162D-01 0.333D+00 0.692D+00
 Gap=     0.186 Goal=   None    Shift=    0.000
 RMSDP=3.39D-07 MaxDP=2.48D-05 DE=-1.34D-10 OVMax= 1.37D-06

 Cycle  13  Pass 1  IDiag  1:
 RMSU=  5.89D-08    CP:  1.10D+00  8.80D-01  8.84D-01  4.44D-01  8.17D-01
                    CP:  1.66D+00  1.35D+00  1.49D+00  1.23D+00  1.22D+00
                    CP:  1.11D+00  9.08D-01
 E= -418.987316421541     Delta-E=       -0.000000000010 Rises=F Damp=F
 DIIS: error= 4.95D-08 at cycle  13 NSaved=  13.
 NSaved=13 IEnMin=13 EnMin= -418.987316421541     IErMin=13 ErrMin= 4.95D-08
 ErrMax= 4.95D-08  0.00D+00 EMaxC= 1.00D-01 BMatC= 8.98D-13 BMatP= 6.78D-12
 IDIUse=1 WtCom= 1.00D+00 WtEn= 0.00D+00
 Coeff-Com: -0.429D-06 0.842D-06-0.523D-06-0.132D-05-0.361D-04-0.117D-03
 Coeff-Com:  0.197D-03 0.279D-02-0.644D-02-0.183D-01-0.238D-01 0.249D+00
 Coeff-Com:  0.797D+00
 Coeff:     -0.429D-06 0.842D-06-0.523D-06-0.132D-05-0.361D-04-0.117D-03
 Coeff:      0.197D-03 0.279D-02-0.644D-02-0.183D-01-0.238D-01 0.249D+00
 Coeff:      0.797D+00
 Gap=     0.186 Goal=   None    Shift=    0.000
 RMSDP=1.10D-07 MaxDP=7.74D-06 DE=-1.03D-11 OVMax= 6.15D-07

 Cycle  14  Pass 1  IDiag  1:
 RMSU=  1.81D-08    CP:  1.10D+00  8.80D-01  8.84D-01  4.44D-01  8.17D-01
                    CP:  1.66D+00  1.35D+00  1.49D+00  1.23D+00  1.23D+00
                    CP:  1.12D+00  9.45D-01  1.15D+00
 E= -418.987316421542     Delta-E=       -0.000000000000 Rises=F Damp=F
 DIIS: error= 1.12D-08 at cycle  14 NSaved=  14.
 NSaved=14 IEnMin=14 EnMin= -418.987316421542     IErMin=14 ErrMin= 1.12D-08
 ErrMax= 1.12D-08  0.00D+00 EMaxC= 1.00D-01 BMatC= 3.95D-14 BMatP= 8.98D-13
 IDIUse=1 WtCom= 1.00D+00 WtEn= 0.00D+00
 Coeff-Com: -0.612D-06 0.135D-05 0.410D-05 0.700D-05-0.329D-05-0.148D-03
 Coeff-Com: -0.104D-03 0.157D-02-0.475D-03-0.606D-02-0.229D-01 0.355D-01
 Coeff-Com:  0.250D+00 0.743D+00
 Coeff:     -0.612D-06 0.135D-05 0.410D-05 0.700D-05-0.329D-05-0.148D-03
 Coeff:     -0.104D-03 0.157D-02-0.475D-03-0.606D-02-0.229D-01 0.355D-01
 Coeff:      0.250D+00 0.743D+00
 Gap=     0.186 Goal=   None    Shift=    0.000
 RMSDP=5.99D-08 MaxDP=5.40D-06 DE=-4.55D-13 OVMax= 9.76D-08

 Cycle  15  Pass 1  IDiag  1:
 RMSU=  4.95D-09    CP:  1.10D+00  8.80D-01  8.84D-01  4.44D-01  8.17D-01
                    CP:  1.66D+00  1.35D+00  1.49D+00  1.23D+00  1.23D+00
                    CP:  1.12D+00  9.68D-01  1.13D+00  1.02D+00
 E= -418.987316421545     Delta-E=       -0.000000000004 Rises=F Damp=F
 DIIS: error= 2.97D-09 at cycle  15 NSaved=  15.
 NSaved=15 IEnMin=15 EnMin= -418.987316421545     IErMin=15 ErrMin= 2.97D-09
 ErrMax= 2.97D-09  0.00D+00 EMaxC= 1.00D-01 BMatC= 1.51D-15 BMatP= 3.95D-14
 IDIUse=1 WtCom= 1.00D+00 WtEn= 0.00D+00
 Coeff-Com: -0.175D-07 0.476D-07 0.956D-07 0.198D-06 0.724D-07-0.273D-05
 Coeff-Com: -0.653D-05-0.573D-04 0.339D-03 0.740D-03 0.568D-04-0.175D-01
 Coeff-Com: -0.273D-01 0.916D-01 0.952D+00
 Coeff:     -0.175D-07 0.476D-07 0.956D-07 0.198D-06 0.724D-07-0.273D-05
 Coeff:     -0.653D-05-0.573D-04 0.339D-03 0.740D-03 0.568D-04-0.175D-01
 Coeff:     -0.273D-01 0.916D-01 0.952D+00
 Gap=     0.186 Goal=   None    Shift=    0.000
 RMSDP=5.83D-09 MaxDP=5.18D-07 DE=-3.52D-12 OVMax= 4.59D-08

 SCF Done:  E(RM062X) =  -418.987316422     A.U. after   15 cycles
            NFock= 15  Conv=0.58D-08     -V/T= 2.0089
 KE= 4.153113729485D+02 PE=-1.949826794207D+03 EE= 6.264200773519D+02
 Leave Link  502 at Tue Mar 25 12:09:04 2025, MaxMem=  8589934592 cpu:             637.7 elap:              40.2
 (Enter /apps/gaussian/g16-c01-avx/g16/l601.exe)
 Copying SCF densities to generalized density rwf, IOpCl= 0 IROHF=0.

 **********************************************************************

            Population analysis using the SCF Density.

 **********************************************************************

 Orbital symmetries:
       Occupied  (A) (A) (A) (A) (A) (A) (A) (A) (A) (A) (A) (A)
                 (A) (A) (A) (A) (A) (A) (A) (A) (A) (A) (A) (A)
                 (A) (A) (A) (A) (A) (A) (A) (A) (A) (A) (A)
       Virtual   (A) (A) (A) (A) (A) (A) (A) (A) (A) (A) (A) (A)
                 (A) (A) (A) (A) (A) (A) (A) (A) (A) (A) (A) (A)
                 (A) (A) (A) (A) (A) (A) (A) (A) (A) (A) (A) (A)
                 (A) (A) (A) (A) (A) (A) (A) (A) (A) (A) (A) (A)
                 (A) (A) (A) (A) (A) (A) (A) (A) (A) (A) (A) (A)
                 (A) (A) (A) (A) (A) (A) (A) (A) (A) (A) (A) (A)
                 (A) (A) (A) (A) (A) (A) (A) (A) (A) (A) (A) (A)
                 (A) (A) (A) (A) (A) (A) (A) (A) (A) (A) (A) (A)
                 (A) (A) (A) (A) (A) (A) (A) (A) (A) (A) (A) (A)
                 (A) (A) (A) (A) (A) (A) (A) (A) (A) (A) (A) (A)
                 (A) (A) (A) (A) (A) (A) (A) (A) (A) (A) (A) (A)
                 (A) (A) (A) (A) (A) (A) (A) (A) (A) (A) (A) (A)
                 (A) (A) (A) (A) (A) (A) (A) (A) (A) (A) (A) (A)
                 (A) (A) (A) (A) (A) (A) (A) (A) (A) (A) (A) (A)
                 (A) (A) (A) (A) (A) (A) (A) (A) (A) (A) (A) (A)
                 (A) (A) (A) (A) (A) (A) (A) (A) (A) (A) (A) (A)
                 (A) (A) (A) (A) (A) (A) (A) (A) (A) (A)
 The electronic state is 1-A.
 Alpha  occ. eigenvalues --  -14.77990 -14.77990 -10.59834 -10.59770 -10.57315
 Alpha  occ. eigenvalues --  -10.57211 -10.54968 -10.54968 -10.54633 -10.54559
 Alpha  occ. eigenvalues --   -1.08165  -1.02305  -0.94695  -0.85218  -0.84004
 Alpha  occ. eigenvalues --   -0.78896  -0.71894  -0.70788  -0.62127  -0.61863
 Alpha  occ. eigenvalues --   -0.59441  -0.58763  -0.52831  -0.50563  -0.50241
 Alpha  occ. eigenvalues --   -0.49491  -0.47795  -0.46167  -0.41219  -0.41163
 Alpha  occ. eigenvalues --   -0.40822  -0.40565  -0.31061  -0.29020  -0.19173
 Alpha virt. eigenvalues --   -0.00548   0.00241   0.00864   0.02113   0.02279
 Alpha virt. eigenvalues --    0.02417   0.02595   0.04597   0.04798   0.06204
 Alpha virt. eigenvalues --    0.06947   0.07131   0.08154   0.09569   0.10121
 Alpha virt. eigenvalues --    0.10446   0.11165   0.12022   0.12604   0.12904
 Alpha virt. eigenvalues --    0.13491   0.13672   0.13786   0.13789   0.14624
 Alpha virt. eigenvalues --    0.14856   0.15511   0.15530   0.15983   0.17630
 Alpha virt. eigenvalues --    0.17922   0.18592   0.18956   0.20127   0.20496
 Alpha virt. eigenvalues --    0.21015   0.21072   0.21386   0.23254   0.24289
 Alpha virt. eigenvalues --    0.24757   0.25202   0.25768   0.26558   0.26937
 Alpha virt. eigenvalues --    0.27022   0.28041   0.28373   0.29455   0.29989
 Alpha virt. eigenvalues --    0.30068   0.31609   0.32570   0.32737   0.33667
 Alpha virt. eigenvalues --    0.35968   0.36395   0.37909   0.38998   0.39276
 Alpha virt. eigenvalues --    0.40121   0.41443   0.43528   0.43904   0.45770
 Alpha virt. eigenvalues --    0.46576   0.55897   0.56790   0.65127   0.67169
 Alpha virt. eigenvalues --    0.68906   0.70999   0.71859   0.74078   0.76424
 Alpha virt. eigenvalues --    0.77809   0.78727   0.79206   0.79872   0.81355
 Alpha virt. eigenvalues --    0.81680   0.82990   0.85690   0.89899   0.93228
 Alpha virt. eigenvalues --    0.94666   0.96542   0.98404   0.99689   1.00465
 Alpha virt. eigenvalues --    1.01991   1.04277   1.04776   1.05327   1.07561
 Alpha virt. eigenvalues --    1.07677   1.08438   1.09567   1.10719   1.14986
 Alpha virt. eigenvalues --    1.15465   1.17855   1.18810   1.20291   1.21265
 Alpha virt. eigenvalues --    1.23019   1.24823   1.26800   1.27629   1.29885
 Alpha virt. eigenvalues --    1.33385   1.34033   1.35566   1.38017   1.41589
 Alpha virt. eigenvalues --    1.43848   1.45205   1.46578   1.47738   1.47819
 Alpha virt. eigenvalues --    1.49146   1.54546   1.57467   1.69560   1.75483
 Alpha virt. eigenvalues --    1.76768   1.83919   1.84008   1.86232   1.88231
 Alpha virt. eigenvalues --    1.93964   1.96270   1.98119   1.99319   2.00754
 Alpha virt. eigenvalues --    2.01905   2.03158   2.05382   2.06364   2.08147
 Alpha virt. eigenvalues --    2.09628   2.13752   2.14624   2.17562   2.22842
 Alpha virt. eigenvalues --    2.26283   2.27493   2.32374   2.32406   2.35727
 Alpha virt. eigenvalues --    2.40098   2.41763   2.42298   2.44631   2.45270
 Alpha virt. eigenvalues --    2.46913   2.47674   2.50481   2.52036   2.52305
 Alpha virt. eigenvalues --    2.56015   2.56737   2.57236   2.60991   2.61851
 Alpha virt. eigenvalues --    2.63915   2.64045   2.65812   2.69232   2.73723
 Alpha virt. eigenvalues --    2.74204   2.75505   2.75676   2.79073   2.83682
 Alpha virt. eigenvalues --    2.88741   2.93536   3.03943   3.05433   3.09270
 Alpha virt. eigenvalues --    3.15782   3.20898   3.28343   3.29988   3.30951
 Alpha virt. eigenvalues --    3.32700   3.41143   3.44672   3.47823   3.51849
 Alpha virt. eigenvalues --    3.83716   3.89573   4.22154   4.33802   4.38356
 Alpha virt. eigenvalues --    4.39160   4.46140   4.53414   4.55498   4.66981
 Alpha virt. eigenvalues --    4.73947   4.91739
          Condensed to atoms (all electrons):
               1          2          3          4          5          6
     1  C    6.159706   0.537627  -0.313144  -2.256066   0.056431  -0.022174
     2  C    0.537627   6.159697   0.999039   0.819836  -0.007238   0.020806
     3  C   -0.313144   0.999039   7.932494   1.523423  -0.119721   0.436050
     4  C   -2.256066   0.819836   1.523423  29.222240  -0.867066   2.138693
     5  N    0.056431  -0.007238  -0.119721  -0.867066   7.281087  -0.113976
     6  C   -0.022174   0.020806   0.436050   2.138693  -0.113976   5.869206
     7  C    0.020807  -0.022173  -0.338192  -2.297316   0.062176  -0.008302
     8  N   -0.007238   0.056431   0.143377   0.727454  -0.068936   0.062176
     9  C    0.819825  -2.256057  -4.643482 -18.881771   0.727452  -2.297315
    10  C    0.999043  -0.313149   0.670337  -4.643465   0.143377  -0.338190
    11  H    0.241885   0.012942  -0.009890   0.039676   0.000219  -0.001586
    12  H    0.012942   0.241885  -0.013307   0.041695  -0.001170   0.000586
    13  H    0.022374  -0.025787   0.237170  -0.226082  -0.009622   0.005872
    14  H   -0.002334   0.014349  -0.107701   0.135569   0.333728  -0.041994
    15  H   -0.001940   0.002337   0.021017   0.063209  -0.067016   0.346674
    16  H    0.002337  -0.001940  -0.001410  -0.060772   0.020008  -0.025542
    17  H    0.014348  -0.002334  -0.047311  -0.022559   0.006107   0.003436
    18  H   -0.025786   0.022374   0.015856   0.242888  -0.006739   0.014280
               7          8          9         10         11         12
     1  C    0.020807  -0.007238   0.819825   0.999043   0.241885   0.012942
     2  C   -0.022173   0.056431  -2.256057  -0.313149   0.012942   0.241885
     3  C   -0.338192   0.143377  -4.643482   0.670337  -0.009890  -0.013307
     4  C   -2.297316   0.727454 -18.881771  -4.643465   0.039676   0.041695
     5  N    0.062176  -0.068936   0.727452   0.143377   0.000219  -0.001170
     6  C   -0.008302   0.062176  -2.297315  -0.338190  -0.001586   0.000586
     7  C    5.869210  -0.113977   2.138697   0.436050   0.000586  -0.001586
     8  N   -0.113977   7.281086  -0.867067  -0.119722  -0.001170   0.000219
     9  C    2.138697  -0.867067  29.222277   1.523408   0.041694   0.039676
    10  C    0.436050  -0.119722   1.523408   7.932494  -0.013307  -0.009891
    11  H    0.000586  -0.001170   0.041694  -0.013307   0.568334  -0.002155
    12  H   -0.001586   0.000219   0.039676  -0.009891  -0.002155   0.568334
    13  H    0.014280  -0.006739   0.242887   0.015856  -0.004392  -0.010498
    14  H    0.003436   0.006107  -0.022559  -0.047310   0.000571   0.001241
    15  H   -0.025543   0.020008  -0.060773  -0.001410  -0.000043  -0.000048
    16  H    0.346674  -0.067016   0.063208   0.021017  -0.000048  -0.000043
    17  H   -0.041994   0.333728   0.135572  -0.107703   0.001241   0.000571
    18  H    0.005872  -0.009622  -0.226083   0.237170  -0.010498  -0.004392
              13         14         15         16         17         18
     1  C    0.022374  -0.002334  -0.001940   0.002337   0.014348  -0.025786
     2  C   -0.025787   0.014349   0.002337  -0.001940  -0.002334   0.022374
     3  C    0.237170  -0.107701   0.021017  -0.001410  -0.047311   0.015856
     4  C   -0.226082   0.135569   0.063209  -0.060772  -0.022559   0.242888
     5  N   -0.009622   0.333728  -0.067016   0.020008   0.006107  -0.006739
     6  C    0.005872  -0.041994   0.346674  -0.025542   0.003436   0.014280
     7  C    0.014280   0.003436  -0.025543   0.346674  -0.041994   0.005872
     8  N   -0.006739   0.006107   0.020008  -0.067016   0.333728  -0.009622
     9  C    0.242887  -0.022559  -0.060773   0.063208   0.135572  -0.226083
    10  C    0.015856  -0.047310  -0.001410   0.021017  -0.107703   0.237170
    11  H   -0.004392   0.000571  -0.000043  -0.000048   0.001241  -0.010498
    12  H   -0.010498   0.001241  -0.000048  -0.000043   0.000571  -0.004392
    13  H    0.620140  -0.014655   0.000480   0.000169  -0.000696   0.001024
    14  H   -0.014655   0.435202  -0.017308  -0.000871   0.002814  -0.000696
    15  H    0.000480  -0.017308   0.560676  -0.003681  -0.000871   0.000169
    16  H    0.000169  -0.000871  -0.003681   0.560676  -0.017308   0.000480
    17  H   -0.000696   0.002814  -0.000871  -0.017308   0.435202  -0.014655
    18  H    0.001024  -0.000696   0.000169   0.000480  -0.014655   0.620140
 Mulliken charges:
               1
     1  C   -0.258644
     2  C   -0.258644
     3  C   -0.384603
     4  C    0.300414
     5  N   -0.369103
     6  C   -0.048699
     7  C   -0.048702
     8  N   -0.369101
     9  C    0.300411
    10  C   -0.384604
    11  H    0.135941
    12  H    0.135941
    13  H    0.138219
    14  H    0.322415
    15  H    0.164062
    16  H    0.164062
    17  H    0.322415
    18  H    0.138219
 Sum of Mulliken charges =  -0.00000
 Mulliken charges with hydrogens summed into heavy atoms:
               1
     1  C   -0.122703
     2  C   -0.122703
     3  C   -0.246384
     4  C    0.300414
     5  N   -0.046688
     6  C    0.115363
     7  C    0.115361
     8  N   -0.046687
     9  C    0.300411
    10  C   -0.246385
 Electronic spatial extent (au):  <R**2>=           1294.9530
 Charge=             -0.0000 electrons
 Dipole moment (field-independent basis, Debye):
    X=              0.9693    Y=              0.0000    Z=              0.8893  Tot=              1.3155
 Quadrupole moment (field-independent basis, Debye-Ang):
   XX=            -53.7988   YY=            -46.5064   ZZ=            -66.2184
   XY=              0.0000   XZ=              1.6424   YZ=             -0.0000
 Traceless Quadrupole moment (field-independent basis, Debye-Ang):
   XX=              1.7091   YY=              9.0014   ZZ=            -10.7106
   XY=              0.0000   XZ=              1.6424   YZ=             -0.0000
 Octapole moment (field-independent basis, Debye-Ang**2):
  XXX=              9.2778  YYY=              0.0000  ZZZ=             -0.3084  XYY=             10.9627
  XXY=              0.0000  XXZ=              2.1282  XZZ=              1.7195  YZZ=              0.0000
  YYZ=              5.6301  XYZ=              0.0000
 Hexadecapole moment (field-independent basis, Debye-Ang**3):
 XXXX=          -1110.1757 YYYY=           -424.6253 ZZZZ=            -83.4978 XXXY=              0.0000
 XXXZ=              7.3638 YYYX=              0.0001 YYYZ=             -0.0000 ZZZX=              0.5086
 ZZZY=             -0.0000 XXYY=           -247.0824 XXZZ=           -250.5914 YYZZ=           -112.0786
 XXYZ=             -0.0000 YYXZ=              9.0483 ZZXY=              0.0000
 N-N= 4.891080274851D+02 E-N=-1.949826794164D+03  KE= 4.153113729485D+02
 No NMR shielding tensors so no spin-rotation constants.
 Leave Link  601 at Tue Mar 25 12:09:04 2025, MaxMem=  8589934592 cpu:               1.7 elap:               0.1
 (Enter /apps/gaussian/g16-c01-avx/g16/l701.exe)
 ... and contract with generalized density number  0.
 Compute integral first derivatives.
 Leave Link  701 at Tue Mar 25 12:09:05 2025, MaxMem=  8589934592 cpu:               1.8 elap:               0.1
 (Enter /apps/gaussian/g16-c01-avx/g16/l702.exe)
 L702 exits ... SP integral derivatives will be done elsewhere.
 Leave Link  702 at Tue Mar 25 12:09:05 2025, MaxMem=  8589934592 cpu:               0.2 elap:               0.0
 (Enter /apps/gaussian/g16-c01-avx/g16/l703.exe)
 Integral derivatives from FoFJK, PRISM(SPDF).
 Compute integral first derivatives, UseDBF=F ICtDFT=           0.
 Calling FoFJK, ICntrl=      2127 FMM=F ISym2X=0 I1Cent= 0 IOpClX= 0 NMat=1 NMatS=1 NMatT=0.
 FoFJK:  IHMeth= 1 ICntrl=    2127 DoSepK=F KAlg= 0 I1Cent=           0 FoldK=F
 IRaf=         0 NMat=       1 IRICut=       1 DoRegI=T DoRafI=F ISym2E= 0 IDoP0=0 IntGTp=1.
 FoFCou: FMM=F IPFlag=           0 FMFlag=      100000 FMFlg1=         800
         NFxFlg=           0 DoJE=F BraDBF=F KetDBF=F FulRan=T
         wScrn=  0.000000 ICntrl=      2127 IOpCl=  0 I1Cent=           0 NGrid=           0
         NMat0=    1 NMatS0=      1 NMatT0=    0 NMatD0=    1 NMtDS0=    0 NMtDT0=    0
 Symmetry not used in FoFCou.
 Leave Link  703 at Tue Mar 25 12:09:09 2025, MaxMem=  8589934592 cpu:              62.7 elap:               4.0
 (Enter /apps/gaussian/g16-c01-avx/g16/l716.exe)
 Dipole        = 3.81368678D-01 1.67947099D-06 3.49862688D-01
 ***** Axes restored to original set *****
 -------------------------------------------------------------------
 Center     Atomic                   Forces (Hartrees/Bohr)
 Number     Number              X              Y              Z
 -------------------------------------------------------------------
      1        6          -0.005351779   -0.000019988    0.009779977
      2        6          -0.005351967   -0.000020112   -0.009780068
      3        6           0.004517143   -0.002104247   -0.008520711
      4        6           0.003266773    0.003219095   -0.000796578
      5        7          -0.025848407    0.004237143    0.006611087
      6        6           0.020691962   -0.006429277   -0.015241256
      7        6           0.020692071   -0.006429349    0.015241303
      8        7          -0.025848501    0.004237371   -0.006610309
      9        6           0.003266614    0.003219114    0.000796727
     10        6           0.004517015   -0.002104314    0.008520759
     11        1           0.001496306   -0.000098615    0.000526460
     12        1           0.001496292   -0.000098673   -0.000526467
     13        1           0.002505632   -0.000232355    0.000681217
     14        1          -0.001829445   -0.000340241   -0.003431825
     15        1           0.000552032    0.001768663   -0.003987109
     16        1           0.000552020    0.001768636    0.003987100
     17        1          -0.001829371   -0.000340486    0.003430915
     18        1           0.002505609   -0.000232365   -0.000681221
 -------------------------------------------------------------------
 Cartesian Forces:  Max     0.025848501 RMS     0.007978848
 Leave Link  716 at Tue Mar 25 12:09:09 2025, MaxMem=  8589934592 cpu:               0.2 elap:               0.0
 (Enter /apps/gaussian/g16-c01-avx/g16/l103.exe)

 GradGradGradGradGradGradGradGradGradGradGradGradGradGradGradGradGradGrad
 Berny optimization.
 FormGI is forming the generalized inverse of G from B-inverse, IUseBI=4.
 Internal  Forces:  Max     0.022270493 RMS     0.004573299
 Search for a local minimum.
 Step number   1 out of a maximum of  103
 All quantities printed in internal units (Hartrees-Bohrs-Radians)
 RMS Force = .45733D-02 SwitMx=.10000D-02 MixMth= 1
 Mixed Optimization -- RFO/linear search
 Second derivative matrix not updated -- first step.
 ITU=  0
     Eigenvalues ---    0.01669   0.01699   0.01847   0.01882   0.02055
     Eigenvalues ---    0.02123   0.02123   0.02126   0.02128   0.02142
     Eigenvalues ---    0.02142   0.02144   0.02333   0.02369   0.02552
     Eigenvalues ---    0.14640   0.14646   0.15997   0.15999   0.15999
     Eigenvalues ---    0.15999   0.16000   0.16000   0.21942   0.21998
     Eigenvalues ---    0.22405   0.22876   0.24204   0.24557   0.35146
     Eigenvalues ---    0.35146   0.35373   0.35373   0.35534   0.35534
     Eigenvalues ---    0.37422   0.40266   0.42152   0.42354   0.44111
     Eigenvalues ---    0.45949   0.45949   0.46088   0.46290   0.46361
     Eigenvalues ---    0.47518   0.48359   0.54824
 RFO step:  Lambda=-5.97164755D-03 EMin= 1.66926663D-02
 Linear search not attempted -- first point.
 Iteration  1 RMS(Cart)=  0.03349091 RMS(Int)=  0.00080292
 Iteration  2 RMS(Cart)=  0.00112385 RMS(Int)=  0.00028526
 Iteration  3 RMS(Cart)=  0.00000056 RMS(Int)=  0.00028526
 ITry= 1 IFail=0 DXMaxC= 1.05D-01 DCOld= 1.00D+10 DXMaxT= 3.00D-01 DXLimC= 3.00D+00 Rises=F
 Variable       Old X    -DE/DX   Delta X   Delta X   Delta X     New X
                                 (Linear)    (Quad)   (Total)
    R1        2.64122  -0.01195   0.00000  -0.02432  -0.02438   2.61684
    R2        2.63984   0.00249   0.00000   0.00600   0.00597   2.64581
    R3        2.05439  -0.00156   0.00000  -0.00437  -0.00437   2.05002
    R4        2.63984   0.00249   0.00000   0.00600   0.00597   2.64581
    R5        2.05439  -0.00156   0.00000  -0.00437  -0.00437   2.05002
    R6        2.63633  -0.00587   0.00000  -0.01313  -0.01310   2.62323
    R7        2.05073   0.00064   0.00000   0.00179   0.00179   2.05252
    R8        2.67889  -0.00776   0.00000  -0.01922  -0.01921   2.65967
    R9        2.69505  -0.01134   0.00000  -0.03125  -0.03117   2.66388
   R10        2.60646   0.02227   0.00000   0.04597   0.04596   2.65242
   R11        1.90889  -0.00324   0.00000  -0.00697  -0.00697   1.90191
   R12        2.53895  -0.01170   0.00000  -0.01840  -0.01841   2.52054
   R13        2.04817  -0.00183   0.00000  -0.00505  -0.00505   2.04312
   R14        2.60646   0.02227   0.00000   0.04597   0.04596   2.65242
   R15        2.04817  -0.00183   0.00000  -0.00505  -0.00505   2.04312
   R16        2.67889  -0.00776   0.00000  -0.01922  -0.01921   2.65967
   R17        1.90888  -0.00324   0.00000  -0.00697  -0.00697   1.90191
   R18        2.63633  -0.00587   0.00000  -0.01313  -0.01310   2.62323
   R19        2.05073   0.00064   0.00000   0.00179   0.00179   2.05252
    A1        2.10152  -0.00318   0.00000  -0.01202  -0.01203   2.08949
    A2        2.09102   0.00189   0.00000   0.00788   0.00785   2.09888
    A3        2.09053   0.00129   0.00000   0.00430   0.00427   2.09480
    A4        2.10152  -0.00318   0.00000  -0.01202  -0.01203   2.08949
    A5        2.09102   0.00189   0.00000   0.00788   0.00785   2.09888
    A6        2.09053   0.00129   0.00000   0.00430   0.00427   2.09480
    A7        2.09098   0.00465   0.00000   0.01847   0.01857   2.10956
    A8        2.08878   0.00026   0.00000   0.00635   0.00629   2.09507
    A9        2.10339  -0.00491   0.00000  -0.02477  -0.02483   2.07856
   A10        2.11632  -0.00071   0.00000   0.00494   0.00450   2.12082
   A11        2.09050  -0.00147   0.00000  -0.00627  -0.00641   2.08409
   A12        2.07391   0.00224   0.00000   0.00442   0.00402   2.07793
   A13        2.07844   0.00216   0.00000   0.00398   0.00362   2.08206
   A14        2.05690  -0.00253   0.00000  -0.02152  -0.02181   2.03509
   A15        2.06484  -0.00011   0.00000  -0.00454  -0.00533   2.05951
   A16        2.12410  -0.00451   0.00000  -0.01329  -0.01343   2.11067
   A17        2.01440   0.00593   0.00000   0.02892   0.02851   2.04292
   A18        2.14464  -0.00140   0.00000  -0.01521  -0.01558   2.12905
   A19        2.12410  -0.00451   0.00000  -0.01329  -0.01343   2.11067
   A20        2.14464  -0.00140   0.00000  -0.01521  -0.01558   2.12905
   A21        2.01440   0.00593   0.00000   0.02892   0.02851   2.04292
   A22        2.07844   0.00216   0.00000   0.00398   0.00362   2.08206
   A23        2.06484  -0.00011   0.00000  -0.00454  -0.00533   2.05951
   A24        2.05690  -0.00253   0.00000  -0.02152  -0.02181   2.03509
   A25        2.07391   0.00224   0.00000   0.00442   0.00402   2.07793
   A26        2.09050  -0.00147   0.00000  -0.00626  -0.00641   2.08409
   A27        2.11632  -0.00071   0.00000   0.00494   0.00450   2.12082
   A28        2.09098   0.00465   0.00000   0.01847   0.01857   2.10956
   A29        2.08878   0.00026   0.00000   0.00635   0.00629   2.09507
   A30        2.10339  -0.00491   0.00000  -0.02477  -0.02483   2.07856
    D1       -0.00000   0.00000   0.00000   0.00000   0.00000  -0.00000
    D2        3.12550   0.00025   0.00000   0.01121   0.01118   3.13668
    D3       -3.12550  -0.00025   0.00000  -0.01121  -0.01118  -3.13668
    D4       -0.00000   0.00000   0.00000   0.00000   0.00000  -0.00000
    D5        0.02062  -0.00022   0.00000  -0.01058  -0.01047   0.01015
    D6       -3.11279  -0.00043   0.00000  -0.01856  -0.01853  -3.13132
    D7       -3.13706   0.00004   0.00000   0.00066   0.00071  -3.13635
    D8        0.01271  -0.00018   0.00000  -0.00732  -0.00735   0.00537
    D9       -0.02062   0.00022   0.00000   0.01058   0.01047  -0.01015
   D10        3.11279   0.00043   0.00000   0.01856   0.01853   3.13132
   D11        3.13706  -0.00004   0.00000  -0.00066  -0.00071   3.13635
   D12       -0.01271   0.00018   0.00000   0.00732   0.00734  -0.00537
   D13        3.08589   0.00087   0.00000   0.03757   0.03733   3.12322
   D14        0.02049  -0.00020   0.00000  -0.01044  -0.01037   0.01012
   D15       -0.04745   0.00063   0.00000   0.02937   0.02921  -0.01824
   D16       -3.11285  -0.00044   0.00000  -0.01864  -0.01850  -3.13135
   D17        3.09477  -0.00226   0.00000  -0.09232  -0.09254   3.00223
   D18        0.38634  -0.00104   0.00000  -0.03667  -0.03717   0.34917
   D19       -0.12231  -0.00136   0.00000  -0.04521  -0.04544  -0.16775
   D20       -2.83074  -0.00014   0.00000   0.01044   0.00992  -2.82082
   D21        3.06725   0.00092   0.00000   0.04689   0.04656   3.11381
   D22       -0.00000   0.00000   0.00000   0.00000   0.00000  -0.00000
   D23       -0.00000   0.00000   0.00000   0.00000   0.00000  -0.00000
   D24       -3.06725  -0.00092   0.00000  -0.04688  -0.04656  -3.11381
   D25        0.12597   0.00090   0.00000   0.04523   0.04502   0.17098
   D26       -3.00557  -0.00012   0.00000   0.00049   0.00005  -3.00552
   D27        2.83243  -0.00093   0.00000  -0.01486  -0.01514   2.81729
   D28       -0.29910  -0.00195   0.00000  -0.05960  -0.06010  -0.35920
   D29        0.00000   0.00000   0.00000   0.00000   0.00000   0.00000
   D30       -3.13078  -0.00114   0.00000  -0.04837  -0.04747   3.10494
   D31        3.13078   0.00114   0.00000   0.04837   0.04747  -3.10494
   D32       -0.00000   0.00000   0.00000   0.00000   0.00000  -0.00000
   D33       -0.12597  -0.00090   0.00000  -0.04523  -0.04502  -0.17098
   D34       -2.83243   0.00093   0.00000   0.01486   0.01514  -2.81729
   D35        3.00557   0.00012   0.00000  -0.00049  -0.00005   3.00551
   D36        0.29911   0.00195   0.00000   0.05960   0.06010   0.35921
   D37        0.12231   0.00136   0.00000   0.04521   0.04544   0.16775
   D38       -3.09477   0.00226   0.00000   0.09232   0.09254  -3.00223
   D39        2.83074   0.00014   0.00000  -0.01044  -0.00992   2.82081
   D40       -0.38634   0.00104   0.00000   0.03667   0.03717  -0.34917
   D41       -0.02049   0.00020   0.00000   0.01044   0.01037  -0.01012
   D42        3.11285   0.00044   0.00000   0.01864   0.01850   3.13135
   D43       -3.08589  -0.00087   0.00000  -0.03757  -0.03734  -3.12322
   D44        0.04745  -0.00063   0.00000  -0.02937  -0.02921   0.01825
         Item               Value     Threshold  Converged?
 Maximum Force            0.022270     0.000450     NO 
 RMS     Force            0.004573     0.000300     NO 
 Maximum Displacement     0.104805     0.001800     NO 
 RMS     Displacement     0.033732     0.001200     NO 
 Predicted change in Energy=-3.180206D-03
 Lowest energy point so far.  Saving SCF results.
 GradGradGradGradGradGradGradGradGradGradGradGradGradGradGradGradGradGrad

 Leave Link  103 at Tue Mar 25 12:09:09 2025, MaxMem=  8589934592 cpu:               0.4 elap:               0.0
 (Enter /apps/gaussian/g16-c01-avx/g16/l202.exe)
                          Input orientation:                          
 ---------------------------------------------------------------------
 Center     Atomic      Atomic             Coordinates (Angstroms)
 Number     Number       Type             X           Y           Z
 ---------------------------------------------------------------------
      1          6           0       -0.008448   -0.011638    0.006451
      2          6           0       -0.008448   -0.011639    1.391222
      3          6           0        1.207190    0.015550    2.085323
      4          6           0        2.416363    0.030500    1.403670
      5          7           0        3.645670    0.079876    2.087228
      6          6           0        4.839417   -0.076726    1.365743
      7          6           0        4.839417   -0.076724    0.031931
      8          7           0        3.645670    0.079880   -0.689554
      9          6           0        2.416363    0.030502   -0.005997
     10          6           0        1.207190    0.015553   -0.687650
     11          1           0       -0.945351   -0.027984   -0.540165
     12          1           0       -0.945351   -0.027986    1.937838
     13          1           0        1.213057    0.025344    3.171410
     14          1           0        3.636262   -0.204476    3.052628
     15          1           0        5.752414   -0.162607    1.938450
     16          1           0        5.752415   -0.162604   -0.540777
     17          1           0        3.636263   -0.204472   -1.654954
     18          1           0        1.213057    0.025348   -1.773737
 ---------------------------------------------------------------------
                    Distance matrix (angstroms):
                    1          2          3          4          5
     1  C    0.000000
     2  C    1.384770   0.000000
     3  C    2.408365   1.400104   0.000000
     4  C    2.798876   2.425209   1.388155   0.000000
     5  N    4.206018   3.720938   2.439329   1.407439   0.000000
     6  C    5.035246   4.848368   3.703968   2.425721   1.403601
     7  C    4.848368   5.035246   4.173488   2.786459   2.381974
     8  N    3.720938   4.206018   3.694627   2.428008   2.776782
     9  C    2.425209   2.798876   2.415770   1.409667   2.428008
    10  C    1.400104   2.408365   2.772973   2.415769   3.694627
    11  H    1.084825   2.146697   3.395367   3.883689   5.290775
    12  H    2.146697   1.084825   2.158027   3.404391   4.594717
    13  H    3.392699   2.159285   1.086147   2.138429   2.663838
    14  H    4.753976   4.010158   2.623830   2.064565   1.006450
    15  H    6.078071   5.788764   4.551085   3.384157   2.125865
    16  H    5.788764   6.078071   5.252352   3.866187   3.376918
    17  H    4.010158   4.753976   4.465252   3.301295   3.752982
    18  H    2.159285   3.392699   3.859077   3.397630   4.563730
                    6          7          8          9         10
     6  C    0.000000
     7  C    1.333812   0.000000
     8  N    2.381974   1.403601   0.000000
     9  C    2.786459   2.425721   1.407439   0.000000
    10  C    4.173488   3.703968   2.439329   1.388155   0.000000
    11  H    6.090845   5.813192   4.594718   3.404391   2.158027
    12  H    5.813192   6.090845   5.290775   3.883689   3.395367
    13  H    4.052325   4.797628   4.563730   3.397630   3.859077
    14  H    2.075929   3.253999   3.752982   3.301296   4.465253
    15  H    1.081173   2.115598   3.376918   3.866187   5.252352
    16  H    2.115598   1.081173   2.125866   3.384157   4.551085
    17  H    3.253999   2.075929   1.006450   2.064565   2.623830
    18  H    4.797628   4.052325   2.663838   2.138429   1.086147
                   11         12         13         14         15
    11  H    0.000000
    12  H    2.478003   0.000000
    13  H    4.293874   2.486618   0.000000
    14  H    5.824989   4.718590   2.436976   0.000000
    15  H    7.142949   6.699118   4.707577   2.391912   0.000000
    16  H    6.699118   7.142949   5.866977   4.170421   2.479227
    17  H    4.718589   5.824988   5.405417   4.707582   4.170421
    18  H    2.486618   4.293874   4.945147   5.405418   5.866977
                   16         17         18
    16  H    0.000000
    17  H    2.391912   0.000000
    18  H    4.707577   2.436976   0.000000
 Stoichiometry    C8H8N2
 Framework group  C1[X(C8H8N2)]
 Deg. of freedom    48
 Full point group                 C1      NOp   1
 RotChk:  IX=0 Diff= 1.13D-03
 Largest Abelian subgroup         C1      NOp   1
 Largest concise Abelian subgroup C1      NOp   1
                         Standard orientation:                         
 ---------------------------------------------------------------------
 Center     Atomic      Atomic             Coordinates (Angstroms)
 Number     Number       Type             X           Y           Z
 ---------------------------------------------------------------------
      1          6           0       -2.462620   -0.692385    0.033294
      2          6           0       -2.462620    0.692385    0.033294
      3          6           0       -1.247296    1.386486   -0.005493
      4          6           0       -0.038321    0.704834   -0.031978
      5          7           0        1.190459    1.388391   -0.093080
      6          6           0        2.385645    0.666906    0.052126
      7          6           0        2.385645   -0.666906    0.052126
      8          7           0        1.190459   -1.388391   -0.093081
      9          6           0       -0.038321   -0.704834   -0.031978
     10          6           0       -1.247296   -1.386486   -0.005493
     11          1           0       -3.399324   -1.239002    0.058579
     12          1           0       -3.399324    1.239001    0.058578
     13          1           0       -1.241523    2.472573   -0.015343
     14          1           0        1.183765    2.353791    0.191347
     15          1           0        3.299421    1.239614    0.129292
     16          1           0        3.299421   -1.239613    0.129291
     17          1           0        1.183765   -2.353791    0.191348
     18          1           0       -1.241523   -2.472573   -0.015343
 ---------------------------------------------------------------------
 Rotational constants (GHZ):           3.0745493           1.2301170           0.8800279
 Leave Link  202 at Tue Mar 25 12:09:09 2025, MaxMem=  8589934592 cpu:               0.1 elap:               0.0
 (Enter /apps/gaussian/g16-c01-avx/g16/l301.exe)
 Standard basis: 6-31++G(d,p) (6D, 7F)
 Ernie: Thresh=  0.10000D-02 Tol=  0.10000D-05 Strict=F.
 There are   238 symmetry adapted cartesian basis functions of A   symmetry.
 There are   238 symmetry adapted basis functions of A   symmetry.
   238 basis functions,   384 primitive gaussians,   238 cartesian basis functions
    35 alpha electrons       35 beta electrons
       nuclear repulsion energy       489.9452884040 Hartrees.
 IExCor= 4336 DFT=T Ex+Corr=M062X ExCW=0 ScaHFX=  0.540000
 ScaDFX=  1.000000  1.000000  1.000000  1.000000 ScalE2=  1.000000  1.000000
 IRadAn=      5 IRanWt=     -1 IRanGd=            0 ICorTp=0 IEmpDi=  4
 NAtoms=   18 NActive=   18 NUniq=   18 SFac= 1.00D+00 NAtFMM=   60 NAOKFM=F Big=F
 Integral buffers will be    131072 words long.
 Raffenetti 2 integral format.
 Two-electron integral symmetry is turned on.
 Leave Link  301 at Tue Mar 25 12:09:09 2025, MaxMem=  8589934592 cpu:               0.4 elap:               0.0
 (Enter /apps/gaussian/g16-c01-avx/g16/l302.exe)
 NPDir=0 NMtPBC=     1 NCelOv=     1 NCel=       1 NClECP=     1 NCelD=      1
         NCelK=      1 NCelE2=     1 NClLst=     1 CellRange=     0.0.
 One-electron integrals computed using PRISM.
 One-electron integral symmetry used in STVInt
 NBasis=   238 RedAO= T EigKep=  1.06D-06  NBF=   238
 NBsUse=   237 1.00D-06 EigRej=  4.29D-07 NBFU=   237
 Precomputing XC quadrature grid using
 IXCGrd= 4 IRadAn=           5 IRanWt=          -1 IRanGd=           0 AccXCQ= 0.00D+00.
 Generated NRdTot=       0 NPtTot=           0 NUsed=           0 NTot=          32
 NSgBfM=   238   238   238   238   238 MxSgAt=    18 MxSgA2=    18.
 Leave Link  302 at Tue Mar 25 12:09:10 2025, MaxMem=  8589934592 cpu:               3.1 elap:               0.2
 (Enter /apps/gaussian/g16-c01-avx/g16/l303.exe)
 DipDrv:  MaxL=1.
 Leave Link  303 at Tue Mar 25 12:09:10 2025, MaxMem=  8589934592 cpu:               0.3 elap:               0.0
 (Enter /apps/gaussian/g16-c01-avx/g16/l401.exe)
 Initial guess from the checkpoint file:  "entry_0_reduced_neutral.chk"
 B after Tr=     0.000000    0.000000   -0.000000
         Rot=    1.000000   -0.000000   -0.000010    0.000000 Ang=  -0.00 deg.
 Guess basis will be translated and rotated to current coordinates.
 JPrj=2 DoOrth=T DoCkMO=T.
 Generating alternative initial guess.
 ExpMin= 3.60D-02 ExpMax= 4.17D+03 ExpMxC= 6.27D+02 IAcc=3 IRadAn=         5 AccDes= 0.00D+00
 Harris functional with IExCor= 1009 and IRadAn=       5 diagonalized for initial guess.
 HarFok:  IExCor= 1009 AccDes= 0.00D+00 IRadAn=         5 IDoV= 1 UseB2=F ITyADJ=14
 ICtDFT=  3500011 ScaDFX=  1.000000  1.000000  1.000000  1.000000
 FoFCou: FMM=F IPFlag=           0 FMFlag=      100000 FMFlg1=           0
         NFxFlg=           0 DoJE=T BraDBF=F KetDBF=T FulRan=T
         wScrn=  0.000000 ICntrl=       500 IOpCl=  0 I1Cent=   200000004 NGrid=           0
         NMat0=    1 NMatS0=      1 NMatT0=    0 NMatD0=    1 NMtDS0=    0 NMtDT0=    0
 Petite list used in FoFCou.
 Harris En= -418.792350407169    
 Leave Link  401 at Tue Mar 25 12:09:11 2025, MaxMem=  8589934592 cpu:              15.5 elap:               1.0
 (Enter /apps/gaussian/g16-c01-avx/g16/l502.exe)
 Integral symmetry usage will be decided dynamically.
 Closed shell SCF:
 Using DIIS extrapolation, IDIIS=  1040.
 NGot=  8589934592 LenX=  8589814646 LenY=  8589757561
 Requested convergence on RMS density matrix=1.00D-08 within 128 cycles.
 Requested convergence on MAX density matrix=1.00D-06.
 Requested convergence on             energy=1.00D-06.
 No special actions if energy rises.
 Fock matrices will be formed incrementally for  20 cycles.

 Cycle   1  Pass 1  IDiag  1:
 FoFJK:  IHMeth= 1 ICntrl=       0 DoSepK=F KAlg= 0 I1Cent=           0 FoldK=F
 IRaf= 940000000 NMat=       1 IRICut=       1 DoRegI=T DoRafI=F ISym2E= 0 IDoP0=0 IntGTp=1.
 FoFCou: FMM=F IPFlag=           0 FMFlag=      100000 FMFlg1=           0
         NFxFlg=           0 DoJE=F BraDBF=F KetDBF=F FulRan=T
         wScrn=  0.000000 ICntrl=         0 IOpCl=  0 I1Cent=           0 NGrid=           0
         NMat0=    1 NMatS0=      1 NMatT0=    0 NMatD0=    1 NMtDS0=    0 NMtDT0=    0
 Symmetry not used in FoFCou.
 E= -418.984277360998    
 DIIS: error= 4.51D-03 at cycle   1 NSaved=   1.
 NSaved= 1 IEnMin= 1 EnMin= -418.984277360998     IErMin= 1 ErrMin= 4.51D-03
 ErrMax= 4.51D-03  0.00D+00 EMaxC= 1.00D-01 BMatC= 3.71D-03 BMatP= 3.71D-03
 IDIUse=3 WtCom= 9.55D-01 WtEn= 4.51D-02
 Coeff-Com:  0.100D+01
 Coeff-En:   0.100D+01
 Coeff:      0.100D+01
 Gap=     0.385 Goal=   None    Shift=    0.000
 GapD=    0.385 DampG=1.000 DampE=1.000 DampFc=1.0000 IDamp=-1.
 RMSDP=1.08D-02 MaxDP=8.83D-01              OVMax= 2.68D-02

 Cycle   2  Pass 1  IDiag  1:
 RMSU=  5.29D-03    CP:  1.09D+00
 E= -418.990313990922     Delta-E=       -0.006036629924 Rises=F Damp=F
 DIIS: error= 8.70D-04 at cycle   2 NSaved=   2.
 NSaved= 2 IEnMin= 2 EnMin= -418.990313990922     IErMin= 2 ErrMin= 8.70D-04
 ErrMax= 8.70D-04  0.00D+00 EMaxC= 1.00D-01 BMatC= 2.37D-04 BMatP= 3.71D-03
 IDIUse=3 WtCom= 9.91D-01 WtEn= 8.70D-03
 Coeff-Com: -0.129D-01 0.101D+01
 Coeff-En:   0.000D+00 0.100D+01
 Coeff:     -0.128D-01 0.101D+01
 Gap=     0.193 Goal=   None    Shift=    0.000
 RMSDP=1.95D-03 MaxDP=1.25D-01 DE=-6.04D-03 OVMax= 7.26D-03

 Cycle   3  Pass 1  IDiag  1:
 RMSU=  9.40D-04    CP:  1.07D+00  1.08D+00
 E= -418.990524519061     Delta-E=       -0.000210528139 Rises=F Damp=F
 DIIS: error= 8.95D-04 at cycle   3 NSaved=   3.
 NSaved= 3 IEnMin= 3 EnMin= -418.990524519061     IErMin= 2 ErrMin= 8.70D-04
 ErrMax= 8.95D-04  0.00D+00 EMaxC= 1.00D-01 BMatC= 2.09D-04 BMatP= 2.37D-04
 IDIUse=3 WtCom= 9.91D-01 WtEn= 8.95D-03
 Coeff-Com: -0.695D-01 0.520D+00 0.550D+00
 Coeff-En:   0.000D+00 0.702D-01 0.930D+00
 Coeff:     -0.689D-01 0.516D+00 0.553D+00
 Gap=     0.192 Goal=   None    Shift=    0.000
 RMSDP=4.64D-04 MaxDP=2.41D-02 DE=-2.11D-04 OVMax= 3.58D-03

 Cycle   4  Pass 1  IDiag  1:
 RMSU=  3.85D-04    CP:  1.07D+00  1.10D+00  1.00D+00
 E= -418.990701506968     Delta-E=       -0.000176987908 Rises=F Damp=F
 DIIS: error= 9.72D-05 at cycle   4 NSaved=   4.
 NSaved= 4 IEnMin= 4 EnMin= -418.990701506968     IErMin= 4 ErrMin= 9.72D-05
 ErrMax= 9.72D-05  0.00D+00 EMaxC= 1.00D-01 BMatC= 3.93D-06 BMatP= 2.09D-04
 IDIUse=1 WtCom= 1.00D+00 WtEn= 0.00D+00
 Coeff-Com: -0.810D-02-0.107D-01 0.941D-01 0.925D+00
 Coeff:     -0.810D-02-0.107D-01 0.941D-01 0.925D+00
 Gap=     0.192 Goal=   None    Shift=    0.000
 RMSDP=3.89D-04 MaxDP=3.33D-02 DE=-1.77D-04 OVMax= 1.33D-03

 Cycle   5  Pass 1  IDiag  1:
 RMSU=  1.54D-04    CP:  1.07D+00  1.10D+00  1.17D+00  9.89D-01
 E= -418.990706570837     Delta-E=       -0.000005063868 Rises=F Damp=F
 DIIS: error= 6.49D-05 at cycle   5 NSaved=   5.
[...]
 -0.120524,-0.1079693,-0.3686724,0.5129243,0.3597695,0.1552779,-0.52443
 64,0.902571,0.1242355,-0.267891,0.1062489,0.0594409,-0.1465006,-0.9413
 33,-0.0833528,0.0279492,-0.0914681,0.0132913,0.1108482,-0.0048957,-0.1
 709459,0.0034995,-0.0770259,-0.0240434,0.1163155,-0.0621231,-0.0147656
 ,-0.0705707,-0.0141629,0.1443027,-0.0054074,-0.0734962,-0.0063423,0.02
 59409,-0.0621231,-0.0147657,0.0705707,-0.014163,0.1443026,0.0054076,0.
 0734961,0.0063425,0.0259409,0.0650902,-0.0053624,-0.0446577,-0.0146864
 ,0.1398694,0.0000849,-0.0179116,-0.0009729,-0.1028578,0.1045,0.0204088
 ,0.0717716,0.0785827,0.278653,0.1414383,0.0362935,0.029767,0.1803288,-
 0.0348686,0.0571695,-0.0280174,0.0535163,0.1615095,0.0170603,-0.042315
 1,0.0153201,0.0431706,-0.0348687,0.0571694,0.0280175,0.0535162,0.16150
 96,-0.0170601,0.0423152,-0.0153199,0.0431706,0.1045,0.0204089,-0.07177
 16,0.0785828,0.2786534,-0.141438,-0.0362934,-0.0297668,0.1803284,0.065
 0902,-0.0053625,0.0446577,-0.0146864,0.1398694,-0.0000845,0.0179116,0.
 0009734,-0.1028578\Polar=137.8696771,0.3585242,62.5530104,0.0000029,-0
 .0000464,114.5430974\Quadrupole=1.656636,-8.1526118,6.4959758,-1.98103
 35,-0.0000028,-0.0000142\PG=C01 [X(C8H8N2)]\NImag=0\\0.72233088,0.0495
 3816,0.13154011,0.04039994,0.00445426,0.71198608,-0.12592771,-0.005641
 67,0.03703469,0.72233089,-0.00564160,-0.06063496,0.00317388,0.04953823
 ,0.13154012,-0.03703466,-0.00317335,-0.36273946,-0.04039986,-0.0044552
 7,0.71198605,0.03195283,0.00212492,-0.08442351,-0.28546130,-0.01807720
 ,-0.05731866,0.69306409,0.00283039,0.00537050,-0.00733294,-0.01910015,
 -0.05601106,-0.00390188,0.05300832,0.12575405,-0.02528316,-0.00211361,
 -0.02846477,-0.12892436,-0.00991278,-0.17806422,0.00440067,-0.00522379
 ,0.74548831,-0.00971039,-0.00047638,0.03386090,-0.06150622,-0.00593428
 ,-0.02391844,-0.28446194,-0.02268943,0.13827755,0.72459692,0.00171993,
 0.00080570,0.00188732,-0.00525192,-0.00190224,0.00021541,-0.02462534,-
 0.05661240,0.01269141,0.04795364,0.13827472,0.03838500,0.00342016,-0.0
 6700224,0.03367129,0.00247195,0.08117660,0.05780759,0.00776051,-0.1965
 5814,-0.04230061,-0.00669042,0.69687649,-0.01023728,-0.00135145,-0.002
 65779,0.00668547,0.00102670,0.00339577,-0.05283035,-0.00661986,-0.0183
 6651,-0.21931869,-0.03596213,-0.05641912,0.57692204,-0.00589730,-0.001
 53560,0.00469698,-0.00249790,0.00626413,-0.00490765,-0.00143398,0.0054
 1914,0.00083152,-0.00718100,-0.03581454,0.00209116,-0.05834854,0.10525
 064,-0.00786017,-0.00027281,0.00766174,-0.00102199,0.00166289,-0.01147
 417,0.01814999,0.00158883,0.01866193,-0.07647309,-0.01782661,-0.158429
 81,-0.02184613,-0.06019983,0.78526366,0.00327246,0.00084012,0.00132254
 ,-0.00410993,-0.00135556,0.00040853,0.00633803,0.00092732,-0.00328064,
 -0.05851944,0.01340635,0.00016541,-0.20536444,0.05393824,0.07639719,0.
 60136077,0.00077515,-0.00079274,-0.00173799,0.00135133,0.00201060,0.00
 174257,-0.00474434,-0.00001151,-0.00169521,0.00237722,-0.00516447,0.00
 541054,0.08091729,-0.05307897,-0.03777547,-0.16945590,0.16441063,0.000
 86152,-0.00010999,-0.00436237,0.00303262,-0.00005480,0.00445187,-0.009
 99870,-0.00114339,-0.00340293,0.00462875,0.00633774,0.02107674,0.06313
 329,-0.01986936,-0.17069240,0.07467140,-0.02571683,0.91679122,-0.00410
 993,-0.00135556,-0.00040854,0.00327246,0.00084012,-0.00132254,-0.00588
 411,-0.00125388,-0.00027511,0.01915130,-0.00098528,0.00664953,-0.02752
 086,0.01658612,0.04872571,-0.08931906,0.00956405,-0.01556373,0.6013608
 2,0.00135134,0.00201061,-0.00174257,0.00077515,-0.00079275,0.00173800,
 0.00003127,0.00064013,0.00104379,-0.00258734,0.00456940,-0.00329647,0.
 01440862,-0.00039814,-0.02465040,0.00956403,-0.05621503,0.00741322,-0.
 16945578,0.16441054,-0.00303262,0.00005480,0.00445187,-0.00086152,0.00
 011000,-0.00436237,0.00285487,-0.00060981,0.00040222,-0.00036336,-0.00
 081131,-0.00323677,0.01507584,-0.00369421,-0.02948153,0.01556384,-0.00
 741231,-0.56151648,-0.07467175,0.02571544,0.91679128,0.00668548,0.0010
 2671,-0.00339576,-0.01023728,-0.00135146,0.00265778,0.01095888,0.00088
 636,-0.00603665,-0.02943109,-0.00345324,0.00933451,0.03031376,-0.00678
 266,0.00195869,-0.02752085,0.01440864,-0.01507582,-0.20536444,0.080917
 39,-0.06313315,0.57692210,-0.00249790,0.00626413,0.00490768,-0.0058973
 2,-0.00153559,-0.00469700,0.00625193,0.00482579,-0.00324387,-0.0058813
 8,-0.00204226,0.00715774,-0.00678265,0.00565691,0.00932517,0.01658621,
 -0.00039819,0.00369426,0.05393839,-0.05307906,0.01986960,-0.05834860,0
 .10525032,0.00102199,-0.00166286,-0.01147416,0.00786016,0.00027279,0.0
 0766173,-0.01447377,0.00077512,-0.00404185,0.05161981,0.01179561,-0.03
 103942,-0.00195870,-0.00932518,0.00999730,-0.04872568,0.02465045,-0.02
 948149,-0.07639712,0.03777571,-0.17069234,0.02184597,0.06019845,0.7852
 6401,-0.06150622,-0.00593432,0.02391840,-0.00971038,-0.00047631,-0.033
 86089,0.02759648,0.00344408,0.03129745,-0.10169764,-0.00188026,0.04779
 215,-0.02943108,-0.00588129,-0.05161982,0.01915130,-0.00258735,0.00036
 337,-0.05851945,0.00237723,-0.00462877,-0.21931875,-0.00718115,0.07647
 308,0.72459693,-0.00525186,-0.00190223,-0.00021556,0.00172000,0.000805
 71,-0.00188720,-0.00002589,-0.00293744,0.00487588,-0.00188018,-0.05354
 126,0.00303213,-0.00345322,-0.00204223,-0.01179556,-0.00098527,0.00456
 940,0.00081132,0.01340635,-0.00516444,-0.00633778,-0.03596223,-0.03581
 457,0.01782683,0.04795358,0.13827469,-0.03367132,-0.00247210,0.0811765
 9,-0.03838499,-0.00342004,-0.06700226,0.08801040,0.00729293,-0.0183355
 8,-0.04779212,-0.00303171,-0.29357320,-0.00933451,-0.00715769,-0.03103
 947,-0.00664953,0.00329648,-0.00323676,-0.00016540,-0.00541059,0.02107
 672,0.05641906,-0.00209092,-0.15842977,0.04230069,0.00668943,0.6968765
 3,-0.28546134,-0.01807730,0.05731861,0.03195281,0.00212477,0.08442353,
 -0.06740948,-0.00653169,-0.00568517,0.02759650,-0.00002574,-0.08801039
 ,0.01095887,0.00625191,0.01447378,-0.00588411,0.00003127,-0.00285488,0
 .00633803,-0.00474436,0.00999869,-0.05283035,-0.00143395,-0.01815001,-
 0.28446190,-0.02462524,-0.05780765,0.69306408,-0.01910037,-0.05601109,
 0.00390209,0.00283034,0.00537048,0.00733300,-0.00653170,-0.00086357,-0
 .00027517,0.00344414,-0.00293741,-0.00729290,0.00088635,0.00482579,-0.
 00077510,-0.00125388,0.00064013,0.00060981,0.00092731,-0.00001151,0.00
 114340,-0.00661989,0.00541915,-0.00158885,-0.02268919,-0.05661237,-0.0
 0776027,0.05300833,0.12575403,0.12892431,0.00991300,-0.17806417,0.0252
 8318,0.00211367,-0.02846474,0.00568514,0.00027517,-0.00393296,-0.03129
 744,-0.00487586,-0.01833562,0.00603666,0.00324389,-0.00404185,0.000275
 11,-0.00104379,0.00040222,0.00328064,0.00169521,-0.00340292,0.01836648
 ,-0.00083154,0.01866193,-0.13827760,-0.01269117,-0.19655821,-0.0044005
 9,0.00522272,0.74548833,-0.27161567,-0.01994234,-0.12585430,0.00397615
 ,0.00009669,0.00212121,0.00186896,-0.00039875,0.00045678,-0.00019934,0
 .00003585,0.00101308,0.00036934,-0.00007659,-0.00018530,-0.00019359,0.
 00016479,0.00006848,0.00011368,-0.00025140,0.00046628,-0.00144294,-0.0
 0000120,-0.00098594,-0.00209677,-0.00060305,0.00376965,-0.01756811,-0.
 00178075,-0.01574630,0.28543818,-0.01967213,-0.03599202,-0.01104639,0.
 00007891,0.00271111,0.00041863,-0.00052149,0.00711198,0.00007999,0.000
 08022,-0.00104958,-0.00028970,0.00006414,-0.00031310,0.00025128,-0.000
 00229,-0.00030425,-0.00017884,-0.00004533,-0.00000516,0.00012007,-0.00
 026014,0.00023542,-0.00011226,-0.00055827,0.00649017,0.00032023,-0.001
 88659,0.00195769,-0.00103641,0.02191384,0.02687691,-0.12599668,-0.0107
 5421,-0.13319014,-0.02853393,-0.00237547,-0.00947166,0.00132797,0.0001
 0095,-0.00565857,0.00092815,-0.00000287,-0.00107571,-0.00018175,0.0002
 2557,0.00043146,0.00011074,-0.00013618,-0.00014087,0.00008539,0.000121
 16,-0.00008506,0.00060229,-0.00001941,0.00065647,0.00331849,0.00031252
 ,-0.00104628,0.01467542,0.00130642,0.01137821,0.13514063,0.01142037,0.
 13714716,0.00397615,0.00009670,-0.00212120,-0.27161572,-0.01994257,0.1
 2585424,-0.01756811,-0.00178078,0.01574629,-0.00209677,-0.00060304,-0.
 00376965,-0.00144294,-0.00000121,0.00098593,0.00011368,-0.00025140,-0.
 00046628,-0.00019359,0.00016479,-0.00006848,0.00036934,-0.00007659,0.0
 0018530,-0.00019934,0.00003585,-0.00101308,0.00186896,-0.00039875,-0.0
 0045678,0.00052262,0.00042992,0.00037871,0.28543824,0.00007886,0.00271
 111,-0.00041861,-0.01967235,-0.03599205,0.01104656,-0.00188656,0.00195
 769,0.00103639,-0.00055826,0.00649017,-0.00032022,-0.00026014,0.000235
 42,0.00011226,-0.00004533,-0.00000516,-0.00012007,-0.00000229,-0.00030
 425,0.00017884,0.00006414,-0.00031310,-0.00025128,0.00008023,-0.001049
 58,0.00028970,-0.00052149,0.00711198,-0.00007996,0.00042992,-0.0043725
 5,0.00003298,0.02191408,0.02687695,0.02853394,0.00237549,-0.00947165,0
 .12599662,0.01075437,-0.13319006,-0.01467543,-0.00130643,0.01137821,-0
 .00331849,-0.00031251,-0.00104628,-0.00060229,0.00001941,0.00065647,-0
 .00008539,-0.00012116,-0.00008506,-0.00011074,0.00013618,-0.00014087,0
 .00018175,-0.00022557,0.00043146,-0.00092815,0.00000287,-0.00107571,-0
 .00132797,-0.00010092,-0.00565857,-0.00037871,-0.00003299,0.00096186,-
 0.13514057,-0.01142056,0.13714707,-0.00463374,-0.00091453,-0.00255087,
 0.00571872,0.00027265,-0.02753264,-0.05908421,-0.00198984,-0.00055086,
 0.00376916,-0.00009252,0.02650136,0.00266310,0.00013666,0.00104995,-0.
 00040659,0.00037776,-0.00003627,0.00067752,-0.00037952,0.00024618,0.00
 008591,0.00061193,0.00131153,-0.00441440,-0.00140966,0.00173477,-0.001
 52635,-0.00005656,0.00023750,0.00008274,-0.00002301,-0.00146449,0.0008
 2444,0.00041669,0.00053308,0.05733968,-0.00089964,0.00629433,-0.000101
 41,0.00013754,0.00239566,-0.00229999,-0.00185627,-0.03450940,0.0011887
 7,-0.00026101,0.00407007,0.00268817,0.00035921,-0.00366598,-0.00081307
 ,0.00042096,-0.00070097,0.00000725,-0.00000037,0.00025862,-0.00010873,
 0.00043856,-0.00022809,0.00025279,-0.00164875,0.00693032,0.00043976,0.
 00005834,-0.00093173,-0.00015937,-0.00004105,0.00035587,-0.00010862,0.
 00035858,-0.00375062,0.00003406,0.00286081,0.02385895,-0.00341790,-0.0
 0027488,0.00091453,0.00271946,0.00017396,-0.01119331,-0.00040737,0.001
 83452,-0.34045679,-0.00354342,-0.00032669,-0.01331310,-0.00141748,0.00
 007815,0.00165183,0.00058799,-0.00040394,0.00017465,-0.00079154,0.0002
 7770,-0.00024997,0.00039474,-0.00028161,-0.00084256,0.00238931,0.00039
 905,0.00086643,0.00050629,0.00004095,0.00071912,0.00016050,0.00002753,
 -0.00069252,-0.00016681,-0.00000727,0.00071056,0.00113740,-0.00169343,
 0.36187899,-0.00024227,0.00006473,0.00037284,-0.00034280,0.00004375,-0
 .00000711,0.00178879,-0.00011017,-0.00200763,0.00411292,0.00873586,-0.
 03363011,-0.06554592,0.00432463,0.01344248,0.00324080,-0.01090139,0.03
 067060,-0.00708635,0.00264074,0.00138046,0.00092107,-0.00065444,-0.000
 13014,-0.00716146,-0.00055921,-0.00133742,0.00133887,-0.00026173,-0.00
 127770,-0.00000450,-0.00002644,0.00013276,0.00002799,-0.00005028,0.000
 01502,-0.00079872,-0.00010340,0.00147301,0.06932440,0.00121549,0.00021
 810,-0.00099067,0.00064043,-0.00063002,0.00096492,0.00041293,0.0001360
 0,-0.00057119,-0.00593970,-0.00291465,-0.01162161,0.00612101,-0.034606
 94,0.13598171,0.00170733,-0.00390041,-0.01878839,0.00104938,0.00009683
 ,0.00006857,-0.00014719,-0.00144780,-0.00068781,0.00051266,0.00117563,
 0.00145299,-0.00141199,0.00107284,-0.00065285,0.00000508,-0.00000318,-
 0.00004018,0.00005447,-0.00008978,0.00001097,0.00028878,0.00050990,0.0
 0006678,-0.00423913,0.03798012,0.00063823,-0.00004847,0.00018255,-0.00
 006991,-0.00101345,-0.00026393,0.00244671,-0.00034083,0.00258996,0.000
 12199,0.00470409,-0.01545124,0.00967856,0.09567776,-0.42652015,-0.0014
 4361,0.00464363,-0.01240397,0.00160324,0.00023961,0.00092595,0.0004561
 4,-0.00085840,0.00096123,-0.00195111,0.00079982,0.00171454,0.00007936,
 -0.00003664,-0.00099064,-0.00002406,0.00012446,-0.00000706,0.00010152,
 0.00004918,0.00003097,-0.00074784,0.00080879,-0.00003121,-0.00985899,-
 0.10453800,0.44862853,-0.00020988,-0.00002993,-0.00010119,0.00006071,-
 0.00028418,0.00025452,-0.00102879,-0.00015774,-0.00085912,-0.00001729,
 0.00316827,0.00390498,-0.02023515,0.00514982,-0.01319750,-0.23947769,0
 .07619702,-0.13031594,0.00372748,-0.00048539,0.00149176,0.00300715,0.0
 0175560,0.00179835,-0.00069211,-0.00017158,0.00069763,0.00034770,-0.00
 014591,-0.00005027,0.00000578,0.00002799,-0.00002166,-0.00010896,0.000
 03425,-0.00004605,0.00001716,0.00009659,0.00002995,0.00015534,-0.00059
 734,-0.00061304,0.25422828,0.00042730,-0.00008153,-0.00045468,0.000246
 21,-0.00003004,0.00031651,-0.00010596,-0.00025920,0.00036932,-0.001025
 14,-0.00069104,-0.00251297,0.00751123,-0.00109550,0.00572260,0.0761456
 2,-0.05452838,0.04596773,-0.00148692,0.00311386,-0.00110015,0.00119208
 ,0.00657486,0.00097091,0.00169496,0.00035384,0.00011533,-0.00066699,-0
 .00015181,-0.00010633,0.00001265,-0.00000074,-0.00000825,0.00002327,0.
 00014183,0.00002973,-0.00003066,0.00001319,0.00001902,0.00007632,0.000
 97872,-0.00020301,-0.08308988,0.04937530,0.00015436,-0.00002654,-0.000
 01677,-0.00002677,0.00014841,-0.00013039,0.00078570,0.00027600,0.00059
 251,0.00151635,-0.00217789,-0.00218920,0.01825658,-0.00516534,0.011934
 27,-0.13409727,0.04691527,-0.15018206,-0.02559106,0.01009877,-0.008068
 29,0.00194154,-0.00231478,-0.00469796,0.00150831,0.00037686,-0.0004600
 6,-0.00041406,0.00004063,0.00007420,-0.00002044,-0.00001674,0.00001258
 ,0.00006685,0.00000730,0.00003860,-0.00001560,-0.00008135,-0.00000790,
 -0.00018014,0.00032292,0.00127680,0.13708040,-0.04924971,0.15207042,0.
 00006071,-0.00028418,-0.00025452,-0.00020988,-0.00002993,0.00010119,0.
 00034770,-0.00014591,0.00005027,-0.00069210,-0.00017158,-0.00069763,0.
 00300715,0.00175560,-0.00179835,0.00372748,-0.00048538,-0.00149176,-0.
 23947773,0.07619680,0.13031606,-0.02023515,0.00514979,0.01319750,-0.00
 001729,0.00316828,-0.00390498,-0.00102879,-0.00015774,0.00085912,-0.00
 010896,0.00003425,0.00004605,0.00000578,0.00002799,0.00002166,-0.00004
 890,0.00002017,0.00007438,0.00051802,0.00038222,-0.00030396,-0.0002488
 7,-0.00186998,0.00028240,0.25422833,0.00024621,-0.00003004,-0.00031650
 ,0.00042730,-0.00008153,0.00045468,-0.00066699,-0.00015181,0.00010633,
 0.00169496,0.00035384,-0.00011533,0.00119208,0.00657486,-0.00097089,-0
 .00148697,0.00311387,0.00110017,0.07614539,-0.05452822,-0.04596754,0.0
 0751126,-0.00109550,-0.00572262,-0.00102514,-0.00069105,0.00251297,-0.
 00010596,-0.00025919,-0.00036933,0.00002327,0.00014183,-0.00002973,0.0
 0001265,-0.00000074,0.00000825,-0.00003043,0.00006145,0.00001028,0.000
 97633,0.00154791,-0.00019655,-0.00186998,-0.00532272,0.00006231,-0.083
 08964,0.04937513,0.00002678,-0.00014841,-0.00013039,-0.00015436,0.0000
 2654,-0.00001677,0.00041406,-0.00004063,0.00007420,-0.00150831,-0.0003
 7686,-0.00046006,-0.00194154,0.00231480,-0.00469796,0.02559106,-0.0100
 9875,-0.00806830,0.13409739,-0.04691509,-0.15018218,-0.01825657,0.0051
 6531,0.01193427,-0.00151635,0.00217789,-0.00218920,-0.00078570,-0.0002
 7601,0.00059251,-0.00006685,-0.00000730,0.00003860,0.00002044,0.000016
 74,0.00001258,-0.00005485,-0.00001814,0.00005626,0.00130199,-0.0007657
 4,-0.00054403,-0.00028240,-0.00006232,0.00024102,-0.13708053,0.0492495
 2,0.15207055,-0.00034280,0.00004375,0.00000711,-0.00024227,0.00006473,
 -0.00037284,0.00133887,-0.00026173,0.00127770,-0.00716146,-0.00055921,
 0.00133741,0.00092107,-0.00065444,0.00013014,-0.00708635,0.00264074,-0
 .00138046,0.00324081,-0.01090133,-0.03067062,-0.06554592,0.00432468,-0
 .01344238,0.00411291,0.00873579,0.03363013,0.00178880,-0.00011018,0.00
 200763,0.00002799,-0.00005028,-0.00001502,-0.00000450,-0.00002644,-0.0
 0013276,-0.00041545,-0.00001697,0.00025510,0.00016926,0.00006082,0.000
 10482,0.00051802,0.00097633,-0.00130199,0.00015534,0.00007632,0.000180
 14,0.06932439,0.00064043,-0.00063002,-0.00096492,0.00121549,0.00021809
 ,0.00099067,-0.00141199,0.00107284,0.00065286,0.00051266,0.00117563,-0
 .00145299,-0.00014719,-0.00144781,0.00068780,0.00104939,0.00009683,-0.
 00006857,0.00170731,-0.00390045,0.01878840,0.00612106,-0.03460644,-0.1
 3598086,-0.00593969,-0.00291467,0.01162163,0.00041294,0.00013600,0.000
 57118,0.00005447,-0.00008977,-0.00001097,0.00000508,-0.00000318,0.0000
 4018,-0.00011525,-0.00032598,0.00006584,0.00006082,0.00020272,0.000146
 57,0.00038222,0.00154791,0.00076575,-0.00059734,0.00097872,-0.00032292
 ,-0.00423918,0.03797966,0.00006991,0.00101345,-0.00026393,-0.00063823,
 0.00004847,0.00018255,-0.00007937,0.00003664,-0.00099064,0.00195110,-0
 .00079982,0.00171453,-0.00045614,0.00085840,0.00096123,-0.00160324,-0.
 00023961,0.00092595,0.00144362,-0.00464361,-0.01240394,-0.00967846,-0.
 09567694,-0.42652067,-0.00012200,-0.00470406,-0.01545122,-0.00244671,0
 .00034083,0.00258996,-0.00010152,-0.00004918,0.00003097,0.00002406,-0.
 00012446,-0.00000706,0.00021806,-0.00004144,-0.00005975,-0.00010482,-0
 .00014657,-0.00003856,0.00030396,0.00019656,-0.00054403,0.00061304,0.0
 0020301,0.00127680,0.00985889,0.10453714,0.44862900,0.00571872,0.00027
 261,0.02753265,-0.00463374,-0.00091454,0.00255087,-0.00152635,-0.00005
 656,-0.00023750,-0.00441440,-0.00140966,-0.00173477,0.00008591,0.00061
 193,-0.00131153,0.00067752,-0.00037952,-0.00024618,-0.00040659,0.00037
 776,0.00003627,0.00266310,0.00013666,-0.00104995,0.00376917,-0.0000924
 7,-0.02650135,-0.05908421,-0.00198984,0.00055091,0.00082444,0.00041669
 ,-0.00053308,0.00008274,-0.00002302,0.00146449,0.00014993,0.00007671,0
 .00001640,-0.00041545,-0.00011525,-0.00021806,-0.00004890,-0.00003043,
 0.00005485,0.00001716,-0.00003066,0.00001560,-0.00079872,0.00028877,0.
 00074784,0.05733968,0.00013755,0.00239566,0.00230002,-0.00089965,0.006
 29433,0.00010142,0.00005834,-0.00093173,0.00015936,-0.00164874,0.00693
 032,-0.00043975,0.00043856,-0.00022809,-0.00025279,-0.00000037,0.00025
 862,0.00010874,0.00042096,-0.00070097,-0.00000726,0.00035921,-0.003665
 98,0.00081306,-0.00026102,0.00407008,-0.00268814,-0.00185627,-0.034509
 39,-0.00118824,0.00035858,-0.00375062,-0.00003407,-0.00004105,0.000355
 87,0.00010862,0.00007671,-0.00063558,-0.00000596,-0.00001697,-0.000325
 98,0.00004144,0.00002017,0.00006145,0.00001814,0.00009659,0.00001319,0
 .00008135,-0.00010340,0.00050990,-0.00080879,0.00286081,0.02385894,-0.
 00271946,-0.00017394,-0.01119330,0.00341790,0.00027489,0.00091453,-0.0
 0050629,-0.00004095,0.00071912,-0.00238932,-0.00039904,0.00086643,-0.0
 0039473,0.00028161,-0.00084256,0.00079154,-0.00027770,-0.00024997,-0.0
 0058799,0.00040394,0.00017465,0.00141748,-0.00007816,0.00165184,0.0035
 4342,0.00032672,-0.01331311,0.00040742,-0.00183399,-0.34045680,0.00016
 682,0.00000726,0.00071056,-0.00016050,-0.00002752,-0.00069252,-0.00001
 640,0.00000596,-0.00012527,-0.00025510,-0.00006584,-0.00005975,-0.0000
 7438,-0.00001028,0.00005626,-0.00002995,-0.00001902,-0.00000790,-0.001
 47301,-0.00006678,-0.00003121,-0.00113745,0.00169284,0.36187899\\0.000
 04937,0.00000563,-0.00009056,0.00004937,0.00000563,0.00009056,-0.00011
 055,-0.00001359,-0.00002140,0.00007815,0.00001557,-0.00006794,-0.00000
 747,-0.00002989,0.00000364,-0.00004105,0.00002299,0.00006005,-0.000041
 05,0.00002299,-0.00006005,-0.00000747,-0.00002990,-0.00000363,0.000078
 15,0.00001557,0.00006794,-0.00011055,-0.00001359,0.00002140,-0.0000091
 8,-0.00000249,0.00001984,-0.00000918,-0.00000249,-0.00001984,0.0000236
 9,0.00000388,0.00000268,0.00000087,0.00000878,-0.00001608,0.00001615,-
 0.00001087,-0.00003040,0.00001615,-0.00001087,0.00003040,0.00000087,0.
 00000878,0.00001608,0.00002369,0.00000388,-0.00000268\\\@
 The archive entry for this job was punched.


 CHINESE FORTUNE COOKIE OF JAN 1 1967 SAY....
 ALL THINGS ARE DIFFICULT BEFORE THEY ARE EASY.
 WE LEARN SO LITTLE AND FORGET SO MUCH.
 YOU WILL OVERCOME OBSTACLES TO ACHIEVE SUCCESS.
 AH SO.
 Job cpu time:       0 days  1 hours  1 minutes 46.8 seconds.
 Elapsed time:       0 days  0 hours  3 minutes 53.5 seconds.
 File lengths (MBytes):  RWF=    105 Int=      0 D2E=      0 Chk=      6 Scr=      1
 Normal termination of Gaussian 16 at Tue Mar 25 12:18:20 2025.
